LAMMPS (2 Aug 2023 - Update 3)
#Aplicar deformacion
#Patchy particles con bonds armonicos.
#Change box y ciclos para aplicar deformacion

#Inicializacion
units lj
boundary p p p
atom_style full
newton on

#Interacciones
bond_style harmonic
angle_style harmonic
pair_style hybrid/overlay lj/cut 1.122462 sw threebody off threebody/table

#Importar datos de atomos
read_data /media/felipe/Files/Hydrogel_sim_results/SizeExperiments/2k_particles/exp5/system_v2_formation_2k_5.data extra/special/per/atom 10 #CAMBIAR
Reading data file ...
  orthogonal box = (-12.77 -12.77 -12.77) to (12.77 12.77 12.77)
  1 by 2 by 2 MPI processor grid
  reading atoms ...
  6280 atoms
  reading velocities ...
  6280 velocities
  scanning bonds ...
  4 = max bonds/atom
  scanning angles ...
  6 = max angles/atom
  reading bonds ...
  4280 bonds
  reading angles ...
  2700 angles
Finding 1-2 1-3 1-4 neighbors ...
  special bond factors lj:    0        0        0       
  special bond factors coul:  0        0        0       
     4 = max # of 1-2 neighbors
     3 = max # of 1-3 neighbors
     3 = max # of 1-4 neighbors
    14 = max # of special neighbors
  special bonds CPU = 0.001 seconds
  read_data CPU = 0.067 seconds

#Cambiar el tipo de caja para poder aplicar la deformacion
change_box all triclinic
Changing box ...
  triclinic box = (-12.77 -12.77 -12.77) to (12.77 12.77 12.77) with tilt (0 0 0)

#Coeficientes de interacciones
pair_coeff * * threebody/table /home/felipe/HYDROGELS/Hydrogel-Simulation/input_data/threebody.3b NULL Mon NULL Xl
pair_coeff 2 4 sw /home/felipe/HYDROGELS/Hydrogel-Simulation/input_data/patches.sw NULL Mon NULL Xl
  disabling sw potential three-body terms
pair_coeff 2 2 sw /home/felipe/HYDROGELS/Hydrogel-Simulation/input_data/patches.sw NULL Mon NULL Xl
pair_coeff 1 1 lj/cut 1.0 1.0
pair_coeff 1 2 none
pair_coeff 1 3 lj/cut 1.0 1.0
pair_coeff 2 3 none
pair_coeff 3 3 lj/cut 1.0 1.0
pair_coeff 3 4 none
pair_coeff 1 4 none
pair_coeff 4 4 none

#groups
group patches type 2 4
4280 atoms in group patches
group centers type 1 3
2000 atoms in group centers
group none empty
0 atoms in group none

#Computes
compute presion all pressure NULL pair bond

#SEED
variable seed1 equal 895475

# --- SHEAR RATE ---
variable shear_rate equal 1e-2 #shear rate (1/t)
# --- SHEAR RATE ---

#variables
variable dt equal 1e-3
variable max_strain equal 2 #maximo tilt factor (adimensional)
variable delta_gamma equal 0.01 #cambio en tiltfactor de cada deformacion (adimensional)
variable zhi equal zhi
variable zlo equal zlo
variable l equal v_zhi-v_zlo #longitud de caja
variable flip_strain equal 0.5*v_l
variable delta_gamma_distance equal v_delta_gamma*v_l
variable xy equal xy #tilt factor
variable n equal v_max_strain/v_delta_gamma #numero de deformaciones
variable relaxation_time equal v_delta_gamma/v_shear_rate
variable shear_every equal v_relaxation_time/v_dt
variable shear_iter_num equal v_n*v_shear_every
variable n_pres_av equal v_shear_every/2
variable pres_iter equal stride(v_shear_every-1,v_shear_iter_num,v_shear_every)
variable n_loop loop ${n}
variable n_loop loop 200

#Thermo output
thermo v_pres_iter
thermo_style custom step temp xy c_presion[4]
dump mydmp all atom ${shear_every} /media/felipe/Files/Hydrogel_sim_results/SizeExperiments/2k_particles/exp5/dump_v3_shearing_2k_5.lammpstrj #CAMBIAR
dump mydmp all atom 1000 /media/felipe/Files/Hydrogel_sim_results/SizeExperiments/2k_particles/exp5/dump_v3_shearing_2k_5.lammpstrj 

timestep ${dt}
timestep 0.001

#Integrar. Ensamble NVE. Termostato de langevin
fix mynve all nve
fix thermostat all langevin 0.0 0.0 1 ${seed1}
fix thermostat all langevin 0.0 0.0 1 895475

#Exportar presion
fix presion_ave all ave/time 1 ${n_pres_av} ${shear_every} c_presion[*] file /media/felipe/Files/Hydrogel_sim_results/SizeExperiments/2k_particles/exp5/presion_ave_shearing_2k_5.dat #CAMBIAR
fix presion_ave all ave/time 1 500 ${shear_every} c_presion[*] file /media/felipe/Files/Hydrogel_sim_results/SizeExperiments/2k_particles/exp5/presion_ave_shearing_2k_5.dat 
fix presion_ave all ave/time 1 500 1000 c_presion[*] file /media/felipe/Files/Hydrogel_sim_results/SizeExperiments/2k_particles/exp5/presion_ave_shearing_2k_5.dat 

label runloop
change_box all xy delta ${delta_gamma_distance} remap
change_box all xy delta 0.2554 remap
Changing box ...
  triclinic box = (-12.77 -12.77 -12.77) to (12.77 12.77 12.77) with tilt (0.2554 0 0)
if "${xy} == ${flip_strain}" then "change_box all xy final -${flip_strain}"
run ${shear_every}
run 1000
WARNING: Using a manybody potential with bonds/angles/dihedrals and special_bond exclusions (../pair.cpp:242)
Neighbor list info ...
  update: every = 1 steps, delay = 0 steps, check = yes
  max neighbors/atom: 2000, page size: 100000
  master list distance cutoff = 1.422462
  ghost atom cutoff = 1.422462
  binsize = 0.711231, bins = 37 36 36
  6 neighbor lists, perpetual/occasional/extra = 6 0 0
  (1) pair lj/cut, perpetual, skip from (4)
      attributes: half, newton on
      pair build: skip
      stencil: none
      bin: none
  (2) pair sw, perpetual, skip from (5)
      attributes: half, newton on, cut 0.9000000000000001
      pair build: skip
      stencil: none
      bin: none
  (3) pair threebody/table, perpetual, skip from (6)
      attributes: full, newton on, cut 0.899
      pair build: skip
      stencil: none
      bin: none
  (4) neighbor class addition, perpetual
      attributes: half, newton on
      pair build: half/bin/newton/tri
      stencil: half/bin/3d/tri
      bin: standard
  (5) neighbor class addition, perpetual, trim from (4)
      attributes: half, newton on, cut 0.9000000000000001
      pair build: trim
      stencil: none
      bin: none
  (6) neighbor class addition, perpetual
      attributes: full, newton on, cut 0.899
      pair build: full/bin
      stencil: full/bin/3d
      bin: standard
Per MPI rank memory allocation (min/avg/max) = 12.55 | 12.55 | 12.56 Mbytes
   Step          Temp            Xy        c_presion[4] 
         0   0.010100178    0.2554        -0.020950954  
       999   0.0074416482   0.2554        -0.0010176506 
      1000   0.0072609278   0.2554        -0.00089868169
Loop time of 0.310305 on 4 procs for 1000 steps with 6280 atoms

Performance: 278435.814 tau/day, 3222.637 timesteps/s, 20.238 Matom-step/s
99.8% CPU use with 4 MPI tasks x no OpenMP threads

MPI task timing breakdown:
Section |  min time  |  avg time  |  max time  |%varavg| %total
---------------------------------------------------------------
Pair    | 0.087433   | 0.0964     | 0.10675    |   2.2 | 31.07
Bond    | 0.053718   | 0.055883   | 0.058881   |   0.8 | 18.01
Neigh   | 0.030341   | 0.030345   | 0.030351   |   0.0 |  9.78
Comm    | 0.023424   | 0.03644    | 0.047751   |   4.5 | 11.74
Output  | 0.0015049  | 0.0016251  | 0.0017164  |   0.2 |  0.52
Modify  | 0.078442   | 0.08087    | 0.082907   |   0.6 | 26.06
Other   |            | 0.008741   |            |       |  2.82

Nlocal:           1570 ave        1667 max        1489 min
Histogram: 1 0 0 1 1 0 0 0 0 1
Nghost:            987 ave        1074 max         927 min
Histogram: 1 0 1 1 0 0 0 0 0 1
Neighs:              0 ave           0 max           0 min
Histogram: 4 0 0 0 0 0 0 0 0 0

Total # of neighbors = 0
Ave neighs/atom = 0
Ave special neighs/atom = 2.2229299
Neighbor list builds = 16
Dangerous builds = 0
next n_loop
jump SELF runloop
change_box all xy delta ${delta_gamma_distance} remap
change_box all xy delta 0.2554 remap
Changing box ...
  triclinic box = (-12.77 -12.77 -12.77) to (12.77 12.77 12.77) with tilt (0.5108 0 0)
if "${xy} == ${flip_strain}" then "change_box all xy final -${flip_strain}"
run ${shear_every}
run 1000
WARNING: Using a manybody potential with bonds/angles/dihedrals and special_bond exclusions (../pair.cpp:242)
Per MPI rank memory allocation (min/avg/max) = 13.61 | 13.62 | 13.62 Mbytes
   Step          Temp            Xy        c_presion[4] 
      1000   0.0072609278   0.5108        -0.022980714  
      1999   0.0062580458   0.5108        -0.001140821  
      2000   0.0060709137   0.5108        -0.00027089787
Loop time of 0.279099 on 4 procs for 1000 steps with 6280 atoms

Performance: 309567.611 tau/day, 3582.958 timesteps/s, 22.501 Matom-step/s
99.9% CPU use with 4 MPI tasks x no OpenMP threads

MPI task timing breakdown:
Section |  min time  |  avg time  |  max time  |%varavg| %total
---------------------------------------------------------------
Pair    | 0.08698    | 0.095701   | 0.10766    |   2.4 | 34.29
Bond    | 0.053426   | 0.05569    | 0.059595   |   1.0 | 19.95
Neigh   | 0          | 0          | 0          |   0.0 |  0.00
Comm    | 0.020517   | 0.036273   | 0.047191   |   5.1 | 13.00
Output  | 0.0014574  | 0.0015816  | 0.0016823  |   0.2 |  0.57
Modify  | 0.078307   | 0.080743   | 0.083023   |   0.6 | 28.93
Other   |            | 0.00911    |            |       |  3.26

Nlocal:           1570 ave        1666 max        1491 min
Histogram: 1 0 0 1 1 0 0 0 0 1
Nghost:          986.5 ave        1072 max         925 min
Histogram: 1 0 1 1 0 0 0 0 0 1
Neighs:              0 ave           0 max           0 min
Histogram: 4 0 0 0 0 0 0 0 0 0

Total # of neighbors = 0
Ave neighs/atom = 0
Ave special neighs/atom = 2.2229299
Neighbor list builds = 0
Dangerous builds = 0
next n_loop
jump SELF runloop
change_box all xy delta ${delta_gamma_distance} remap
change_box all xy delta 0.2554 remap
Changing box ...
  triclinic box = (-12.77 -12.77 -12.77) to (12.77 12.77 12.77) with tilt (0.7662 0 0)
if "${xy} == ${flip_strain}" then "change_box all xy final -${flip_strain}"
run ${shear_every}
run 1000
WARNING: Using a manybody potential with bonds/angles/dihedrals and special_bond exclusions (../pair.cpp:242)
Per MPI rank memory allocation (min/avg/max) = 13.62 | 13.62 | 13.63 Mbytes
   Step          Temp            Xy        c_presion[4] 
      2000   0.0060709137   0.7662        -0.02266736   
      2999   0.005927247    0.7662        -0.0011099317 
      3000   0.0056988341   0.7662        -0.0015565473 
Loop time of 0.275708 on 4 procs for 1000 steps with 6280 atoms

Performance: 313375.311 tau/day, 3627.029 timesteps/s, 22.778 Matom-step/s
100.0% CPU use with 4 MPI tasks x no OpenMP threads

MPI task timing breakdown:
Section |  min time  |  avg time  |  max time  |%varavg| %total
---------------------------------------------------------------
Pair    | 0.087492   | 0.095571   | 0.10661    |   2.2 | 34.66
Bond    | 0.053708   | 0.055648   | 0.058997   |   0.9 | 20.18
Neigh   | 0          | 0          | 0          |   0.0 |  0.00
Comm    | 0.020271   | 0.034142   | 0.044455   |   4.7 | 12.38
Output  | 0.0014274  | 0.0015474  | 0.0016512  |   0.2 |  0.56
Modify  | 0.078319   | 0.080656   | 0.082889   |   0.6 | 29.25
Other   |            | 0.008142   |            |       |  2.95

Nlocal:           1570 ave        1666 max        1488 min
Histogram: 1 0 0 1 1 0 0 0 0 1
Nghost:          986.5 ave        1076 max         924 min
Histogram: 1 0 1 1 0 0 0 0 0 1
Neighs:              0 ave           0 max           0 min
Histogram: 4 0 0 0 0 0 0 0 0 0

Total # of neighbors = 0
Ave neighs/atom = 0
Ave special neighs/atom = 2.2229299
Neighbor list builds = 0
Dangerous builds = 0
next n_loop
jump SELF runloop
change_box all xy delta ${delta_gamma_distance} remap
change_box all xy delta 0.2554 remap
Changing box ...
  triclinic box = (-12.77 -12.77 -12.77) to (12.77 12.77 12.77) with tilt (1.0216 0 0)
if "${xy} == ${flip_strain}" then "change_box all xy final -${flip_strain}"
run ${shear_every}
run 1000
WARNING: Using a manybody potential with bonds/angles/dihedrals and special_bond exclusions (../pair.cpp:242)
Per MPI rank memory allocation (min/avg/max) = 13.63 | 13.63 | 13.64 Mbytes
   Step          Temp            Xy        c_presion[4] 
      3000   0.0056988341   1.0216        -0.024098474  
      3999   0.0059864036   1.0216         0.00042159847
      4000   0.0060619947   1.0216        -0.00029905027
Loop time of 0.277577 on 4 procs for 1000 steps with 6280 atoms

Performance: 311265.222 tau/day, 3602.607 timesteps/s, 22.624 Matom-step/s
100.0% CPU use with 4 MPI tasks x no OpenMP threads

MPI task timing breakdown:
Section |  min time  |  avg time  |  max time  |%varavg| %total
---------------------------------------------------------------
Pair    | 0.087633   | 0.095679   | 0.10692    |   2.3 | 34.47
Bond    | 0.053863   | 0.055647   | 0.059661   |   1.0 | 20.05
Neigh   | 0          | 0          | 0          |   0.0 |  0.00
Comm    | 0.020671   | 0.035375   | 0.045544   |   4.9 | 12.74
Output  | 0.0014541  | 0.0015681  | 0.0016589  |   0.2 |  0.56
Modify  | 0.078675   | 0.080924   | 0.083217   |   0.6 | 29.15
Other   |            | 0.008383   |            |       |  3.02

Nlocal:           1570 ave        1666 max        1491 min
Histogram: 1 0 0 1 1 0 0 0 0 1
Nghost:         987.75 ave        1074 max         927 min
Histogram: 1 0 1 1 0 0 0 0 0 1
Neighs:              0 ave           0 max           0 min
Histogram: 4 0 0 0 0 0 0 0 0 0

Total # of neighbors = 0
Ave neighs/atom = 0
Ave special neighs/atom = 2.2229299
Neighbor list builds = 0
Dangerous builds = 0
next n_loop
jump SELF runloop
change_box all xy delta ${delta_gamma_distance} remap
change_box all xy delta 0.2554 remap
Changing box ...
  triclinic box = (-12.77 -12.77 -12.77) to (12.77 12.77 12.77) with tilt (1.277 0 0)
if "${xy} == ${flip_strain}" then "change_box all xy final -${flip_strain}"
run ${shear_every}
run 1000
WARNING: Using a manybody potential with bonds/angles/dihedrals and special_bond exclusions (../pair.cpp:242)
Per MPI rank memory allocation (min/avg/max) = 13.63 | 13.63 | 13.64 Mbytes
   Step          Temp            Xy        c_presion[4] 
      4000   0.0060619947   1.277         -0.021617772  
      4999   0.0056764645   1.277          8.5110981e-05
      5000   0.0056019506   1.277         -3.8822873e-05
Loop time of 0.275827 on 4 procs for 1000 steps with 6280 atoms

Performance: 313240.190 tau/day, 3625.465 timesteps/s, 22.768 Matom-step/s
100.0% CPU use with 4 MPI tasks x no OpenMP threads

MPI task timing breakdown:
Section |  min time  |  avg time  |  max time  |%varavg| %total
---------------------------------------------------------------
Pair    | 0.087807   | 0.095573   | 0.10606    |   2.1 | 34.65
Bond    | 0.053829   | 0.055516   | 0.058911   |   0.9 | 20.13
Neigh   | 0          | 0          | 0          |   0.0 |  0.00
Comm    | 0.021074   | 0.034442   | 0.044031   |   4.5 | 12.49
Output  | 0.0014614  | 0.0015695  | 0.0016711  |   0.2 |  0.57
Modify  | 0.078281   | 0.080556   | 0.082793   |   0.6 | 29.21
Other   |            | 0.00817    |            |       |  2.96

Nlocal:           1570 ave        1667 max        1492 min
Histogram: 1 0 0 1 1 0 0 0 0 1
Nghost:         987.75 ave        1070 max         931 min
Histogram: 1 0 1 1 0 0 0 0 0 1
Neighs:              0 ave           0 max           0 min
Histogram: 4 0 0 0 0 0 0 0 0 0

Total # of neighbors = 0
Ave neighs/atom = 0
Ave special neighs/atom = 2.2229299
Neighbor list builds = 0
Dangerous builds = 0
next n_loop
jump SELF runloop
change_box all xy delta ${delta_gamma_distance} remap
change_box all xy delta 0.2554 remap
Changing box ...
  triclinic box = (-12.77 -12.77 -12.77) to (12.77 12.77 12.77) with tilt (1.5324 0 0)
if "${xy} == ${flip_strain}" then "change_box all xy final -${flip_strain}"
run ${shear_every}
run 1000
WARNING: Using a manybody potential with bonds/angles/dihedrals and special_bond exclusions (../pair.cpp:242)
Per MPI rank memory allocation (min/avg/max) = 13.63 | 13.63 | 13.64 Mbytes
   Step          Temp            Xy        c_presion[4] 
      5000   0.0056019506   1.5324        -0.022200482  
      5999   0.0055722854   1.5324        -0.0016680236 
      6000   0.0055376163   1.5324        -0.0016245899 
Loop time of 0.276642 on 4 procs for 1000 steps with 6280 atoms

Performance: 312316.568 tau/day, 3614.775 timesteps/s, 22.701 Matom-step/s
100.0% CPU use with 4 MPI tasks x no OpenMP threads

MPI task timing breakdown:
Section |  min time  |  avg time  |  max time  |%varavg| %total
---------------------------------------------------------------
Pair    | 0.087047   | 0.095683   | 0.10693    |   2.3 | 34.59
Bond    | 0.053766   | 0.055614   | 0.059352   |   0.9 | 20.10
Neigh   | 0          | 0          | 0          |   0.0 |  0.00
Comm    | 0.020487   | 0.034933   | 0.045745   |   4.9 | 12.63
Output  | 0.0014486  | 0.0015708  | 0.0016777  |   0.2 |  0.57
Modify  | 0.078212   | 0.080666   | 0.082921   |   0.6 | 29.16
Other   |            | 0.008176   |            |       |  2.96

Nlocal:           1570 ave        1668 max        1490 min
Histogram: 1 0 0 1 1 0 0 0 0 1
Nghost:          988.5 ave        1076 max         932 min
Histogram: 1 0 1 1 0 0 0 0 0 1
Neighs:              0 ave           0 max           0 min
Histogram: 4 0 0 0 0 0 0 0 0 0

Total # of neighbors = 0
Ave neighs/atom = 0
Ave special neighs/atom = 2.2229299
Neighbor list builds = 0
Dangerous builds = 0
next n_loop
jump SELF runloop
change_box all xy delta ${delta_gamma_distance} remap
change_box all xy delta 0.2554 remap
Changing box ...
  triclinic box = (-12.77 -12.77 -12.77) to (12.77 12.77 12.77) with tilt (1.7878 0 0)
if "${xy} == ${flip_strain}" then "change_box all xy final -${flip_strain}"
run ${shear_every}
run 1000
WARNING: Using a manybody potential with bonds/angles/dihedrals and special_bond exclusions (../pair.cpp:242)
Per MPI rank memory allocation (min/avg/max) = 13.63 | 13.63 | 13.64 Mbytes
   Step          Temp            Xy        c_presion[4] 
      6000   0.0055376163   1.7878        -0.024076468  
      6999   0.005394658    1.7878        -0.00051743953
      7000   0.0054701615   1.7878        -0.0011416043 
Loop time of 0.276464 on 4 procs for 1000 steps with 6280 atoms

Performance: 312517.995 tau/day, 3617.106 timesteps/s, 22.715 Matom-step/s
100.0% CPU use with 4 MPI tasks x no OpenMP threads

MPI task timing breakdown:
Section |  min time  |  avg time  |  max time  |%varavg| %total
---------------------------------------------------------------
Pair    | 0.08711    | 0.09554    | 0.10686    |   2.3 | 34.56
Bond    | 0.053775   | 0.055683   | 0.059293   |   0.9 | 20.14
Neigh   | 0          | 0          | 0          |   0.0 |  0.00
Comm    | 0.020232   | 0.034671   | 0.045276   |   4.9 | 12.54
Output  | 0.0014654  | 0.0015734  | 0.0016669  |   0.2 |  0.57
Modify  | 0.078443   | 0.080793   | 0.083056   |   0.6 | 29.22
Other   |            | 0.008204   |            |       |  2.97

Nlocal:           1570 ave        1669 max        1489 min
Histogram: 1 0 0 1 1 0 0 0 0 1
Nghost:          988.5 ave        1081 max         927 min
Histogram: 1 0 1 1 0 0 0 0 0 1
Neighs:              0 ave           0 max           0 min
Histogram: 4 0 0 0 0 0 0 0 0 0

Total # of neighbors = 0
Ave neighs/atom = 0
Ave special neighs/atom = 2.2229299
Neighbor list builds = 0
Dangerous builds = 0
next n_loop
jump SELF runloop
change_box all xy delta ${delta_gamma_distance} remap
change_box all xy delta 0.2554 remap
Changing box ...
  triclinic box = (-12.77 -12.77 -12.77) to (12.77 12.77 12.77) with tilt (2.0432 0 0)
if "${xy} == ${flip_strain}" then "change_box all xy final -${flip_strain}"
run ${shear_every}
run 1000
WARNING: Using a manybody potential with bonds/angles/dihedrals and special_bond exclusions (../pair.cpp:242)
Per MPI rank memory allocation (min/avg/max) = 13.63 | 13.64 | 13.64 Mbytes
   Step          Temp            Xy        c_presion[4] 
      7000   0.0054701615   2.0432        -0.022745134  
      7999   0.0055510491   2.0432        -0.0016519901 
      8000   0.0054725713   2.0432        -0.0017027846 
Loop time of 0.279507 on 4 procs for 1000 steps with 6280 atoms

Performance: 309116.098 tau/day, 3577.733 timesteps/s, 22.468 Matom-step/s
99.9% CPU use with 4 MPI tasks x no OpenMP threads

MPI task timing breakdown:
Section |  min time  |  avg time  |  max time  |%varavg| %total
---------------------------------------------------------------
Pair    | 0.087126   | 0.096107   | 0.10747    |   2.4 | 34.38
Bond    | 0.053865   | 0.056433   | 0.059794   |   0.9 | 20.19
Neigh   | 0          | 0          | 0          |   0.0 |  0.00
Comm    | 0.021828   | 0.036084   | 0.047889   |   4.9 | 12.91
Output  | 0.0014326  | 0.0015485  | 0.0016516  |   0.2 |  0.55
Modify  | 0.07843    | 0.080809   | 0.083215   |   0.6 | 28.91
Other   |            | 0.008526   |            |       |  3.05

Nlocal:           1570 ave        1667 max        1491 min
Histogram: 1 0 0 1 1 0 0 0 0 1
Nghost:            988 ave        1077 max         927 min
Histogram: 1 0 1 1 0 0 0 0 0 1
Neighs:              0 ave           0 max           0 min
Histogram: 4 0 0 0 0 0 0 0 0 0

Total # of neighbors = 0
Ave neighs/atom = 0
Ave special neighs/atom = 2.2229299
Neighbor list builds = 0
Dangerous builds = 0
next n_loop
jump SELF runloop
change_box all xy delta ${delta_gamma_distance} remap
change_box all xy delta 0.2554 remap
Changing box ...
  triclinic box = (-12.77 -12.77 -12.77) to (12.77 12.77 12.77) with tilt (2.2986 0 0)
if "${xy} == ${flip_strain}" then "change_box all xy final -${flip_strain}"
run ${shear_every}
run 1000
WARNING: Using a manybody potential with bonds/angles/dihedrals and special_bond exclusions (../pair.cpp:242)
Per MPI rank memory allocation (min/avg/max) = 13.63 | 13.64 | 13.64 Mbytes
   Step          Temp            Xy        c_presion[4] 
      8000   0.0054725713   2.2986        -0.023530822  
      8999   0.0053407289   2.2986        -0.00023508216
      9000   0.0055208405   2.2986        -0.0005455319 
Loop time of 0.276895 on 4 procs for 1000 steps with 6280 atoms

Performance: 312031.413 tau/day, 3611.475 timesteps/s, 22.680 Matom-step/s
100.0% CPU use with 4 MPI tasks x no OpenMP threads

MPI task timing breakdown:
Section |  min time  |  avg time  |  max time  |%varavg| %total
---------------------------------------------------------------
Pair    | 0.087343   | 0.09579    | 0.10717    |   2.3 | 34.59
Bond    | 0.05398    | 0.056429   | 0.059343   |   0.8 | 20.38
Neigh   | 0          | 0          | 0          |   0.0 |  0.00
Comm    | 0.020417   | 0.034264   | 0.045368   |   4.8 | 12.37
Output  | 0.0014196  | 0.0015408  | 0.0016429  |   0.2 |  0.56
Modify  | 0.078454   | 0.08065    | 0.083027   |   0.6 | 29.13
Other   |            | 0.008222   |            |       |  2.97

Nlocal:           1570 ave        1668 max        1492 min
Histogram: 1 0 0 1 1 0 0 0 0 1
Nghost:         985.75 ave        1075 max         928 min
Histogram: 1 0 1 1 0 0 0 0 0 1
Neighs:              0 ave           0 max           0 min
Histogram: 4 0 0 0 0 0 0 0 0 0

Total # of neighbors = 0
Ave neighs/atom = 0
Ave special neighs/atom = 2.2229299
Neighbor list builds = 0
Dangerous builds = 0
next n_loop
jump SELF runloop
change_box all xy delta ${delta_gamma_distance} remap
change_box all xy delta 0.2554 remap
Changing box ...
  triclinic box = (-12.77 -12.77 -12.77) to (12.77 12.77 12.77) with tilt (2.554 0 0)
if "${xy} == ${flip_strain}" then "change_box all xy final -${flip_strain}"
run ${shear_every}
run 1000
WARNING: Using a manybody potential with bonds/angles/dihedrals and special_bond exclusions (../pair.cpp:242)
Per MPI rank memory allocation (min/avg/max) = 13.63 | 13.64 | 13.64 Mbytes
   Step          Temp            Xy        c_presion[4] 
      9000   0.0055208405   2.554         -0.022126127  
      9999   0.005982571    2.554         -0.0018824912 
     10000   0.0057449044   2.554         -0.00098357465
Loop time of 0.277713 on 4 procs for 1000 steps with 6280 atoms

Performance: 311112.646 tau/day, 3600.841 timesteps/s, 22.613 Matom-step/s
99.7% CPU use with 4 MPI tasks x no OpenMP threads

MPI task timing breakdown:
Section |  min time  |  avg time  |  max time  |%varavg| %total
---------------------------------------------------------------
Pair    | 0.08739    | 0.095773   | 0.10694    |   2.3 | 34.49
Bond    | 0.053741   | 0.055663   | 0.059259   |   0.9 | 20.04
Neigh   | 0          | 0          | 0          |   0.0 |  0.00
Comm    | 0.02108    | 0.035363   | 0.045732   |   4.8 | 12.73
Output  | 0.0018447  | 0.0019993  | 0.0021133  |   0.2 |  0.72
Modify  | 0.078432   | 0.080687   | 0.082881   |   0.6 | 29.05
Other   |            | 0.008228   |            |       |  2.96

Nlocal:           1570 ave        1668 max        1493 min
Histogram: 1 0 0 1 1 0 0 0 0 1
Nghost:         988.25 ave        1077 max         927 min
Histogram: 1 0 1 1 0 0 0 0 0 1
Neighs:              0 ave           0 max           0 min
Histogram: 4 0 0 0 0 0 0 0 0 0

Total # of neighbors = 0
Ave neighs/atom = 0
Ave special neighs/atom = 2.2229299
Neighbor list builds = 0
Dangerous builds = 0
next n_loop
jump SELF runloop
change_box all xy delta ${delta_gamma_distance} remap
change_box all xy delta 0.2554 remap
Changing box ...
  triclinic box = (-12.77 -12.77 -12.77) to (12.77 12.77 12.77) with tilt (2.8094 0 0)
if "${xy} == ${flip_strain}" then "change_box all xy final -${flip_strain}"
run ${shear_every}
run 1000
WARNING: Using a manybody potential with bonds/angles/dihedrals and special_bond exclusions (../pair.cpp:242)
Per MPI rank memory allocation (min/avg/max) = 13.64 | 13.64 | 13.65 Mbytes
   Step          Temp            Xy        c_presion[4] 
     10000   0.0057449044   2.8094        -0.023062686  
     10999   0.0057258503   2.8094        -0.0029659056 
     11000   0.0057761487   2.8094        -0.0029575635 
Loop time of 0.277501 on 4 procs for 1000 steps with 6280 atoms

Performance: 311349.866 tau/day, 3603.586 timesteps/s, 22.631 Matom-step/s
100.0% CPU use with 4 MPI tasks x no OpenMP threads

MPI task timing breakdown:
Section |  min time  |  avg time  |  max time  |%varavg| %total
---------------------------------------------------------------
Pair    | 0.087776   | 0.095976   | 0.10677    |   2.2 | 34.59
Bond    | 0.053968   | 0.055876   | 0.059204   |   0.9 | 20.14
Neigh   | 0          | 0          | 0          |   0.0 |  0.00
Comm    | 0.021022   | 0.034687   | 0.045086   |   4.7 | 12.50
Output  | 0.0014526  | 0.0015654  | 0.0016628  |   0.2 |  0.56
Modify  | 0.078823   | 0.081022   | 0.083314   |   0.6 | 29.20
Other   |            | 0.008374   |            |       |  3.02

Nlocal:           1570 ave        1669 max        1492 min
Histogram: 1 0 0 1 1 0 0 0 0 1
Nghost:         989.25 ave        1080 max         928 min
Histogram: 1 0 1 1 0 0 0 0 0 1
Neighs:              0 ave           0 max           0 min
Histogram: 4 0 0 0 0 0 0 0 0 0

Total # of neighbors = 0
Ave neighs/atom = 0
Ave special neighs/atom = 2.2229299
Neighbor list builds = 0
Dangerous builds = 0
next n_loop
jump SELF runloop
change_box all xy delta ${delta_gamma_distance} remap
change_box all xy delta 0.2554 remap
Changing box ...
  triclinic box = (-12.77 -12.77 -12.77) to (12.77 12.77 12.77) with tilt (3.0648 0 0)
if "${xy} == ${flip_strain}" then "change_box all xy final -${flip_strain}"
run ${shear_every}
run 1000
WARNING: Using a manybody potential with bonds/angles/dihedrals and special_bond exclusions (../pair.cpp:242)
Per MPI rank memory allocation (min/avg/max) = 13.64 | 13.65 | 13.65 Mbytes
   Step          Temp            Xy        c_presion[4] 
     11000   0.0057761487   3.0648        -0.024904522  
     11999   0.0055255907   3.0648        -0.0019464778 
     12000   0.0055370858   3.0648        -0.0013715637 
Loop time of 0.289812 on 4 procs for 1000 steps with 6280 atoms

Performance: 298124.446 tau/day, 3450.514 timesteps/s, 21.669 Matom-step/s
100.0% CPU use with 4 MPI tasks x no OpenMP threads

MPI task timing breakdown:
Section |  min time  |  avg time  |  max time  |%varavg| %total
---------------------------------------------------------------
Pair    | 0.091263   | 0.098667   | 0.10903    |   2.1 | 34.05
Bond    | 0.054261   | 0.056932   | 0.060118   |   0.9 | 19.64
Neigh   | 0          | 0          | 0          |   0.0 |  0.00
Comm    | 0.027642   | 0.040669   | 0.049554   |   4.2 | 14.03
Output  | 0.0015054  | 0.0016268  | 0.0017186  |   0.2 |  0.56
Modify  | 0.079987   | 0.082252   | 0.084304   |   0.6 | 28.38
Other   |            | 0.009665   |            |       |  3.34

Nlocal:           1570 ave        1671 max        1491 min
Histogram: 1 0 0 1 1 0 0 0 0 1
Nghost:          990.5 ave        1084 max         927 min
Histogram: 1 0 1 1 0 0 0 0 0 1
Neighs:              0 ave           0 max           0 min
Histogram: 4 0 0 0 0 0 0 0 0 0

Total # of neighbors = 0
Ave neighs/atom = 0
Ave special neighs/atom = 2.2229299
Neighbor list builds = 0
Dangerous builds = 0
next n_loop
jump SELF runloop
change_box all xy delta ${delta_gamma_distance} remap
change_box all xy delta 0.2554 remap
Changing box ...
  triclinic box = (-12.77 -12.77 -12.77) to (12.77 12.77 12.77) with tilt (3.3202 0 0)
if "${xy} == ${flip_strain}" then "change_box all xy final -${flip_strain}"
run ${shear_every}
run 1000
WARNING: Using a manybody potential with bonds/angles/dihedrals and special_bond exclusions (../pair.cpp:242)
Per MPI rank memory allocation (min/avg/max) = 13.64 | 13.65 | 13.65 Mbytes
   Step          Temp            Xy        c_presion[4] 
     12000   0.0055370858   3.3202        -0.024003346  
     12999   0.0055546343   3.3202        -0.0014291335 
     13000   0.0053504559   3.3202        -0.001492536  
Loop time of 0.280946 on 4 procs for 1000 steps with 6280 atoms

Performance: 307532.640 tau/day, 3559.406 timesteps/s, 22.353 Matom-step/s
100.0% CPU use with 4 MPI tasks x no OpenMP threads

MPI task timing breakdown:
Section |  min time  |  avg time  |  max time  |%varavg| %total
---------------------------------------------------------------
Pair    | 0.088906   | 0.096824   | 0.10926    |   2.4 | 34.46
Bond    | 0.054538   | 0.05622    | 0.060208   |   1.0 | 20.01
Neigh   | 0          | 0          | 0          |   0.0 |  0.00
Comm    | 0.020577   | 0.036422   | 0.046269   |   5.0 | 12.96
Output  | 0.0015349  | 0.0016517  | 0.0017599  |   0.2 |  0.59
Modify  | 0.078955   | 0.081158   | 0.083563   |   0.6 | 28.89
Other   |            | 0.00867    |            |       |  3.09

Nlocal:           1570 ave        1672 max        1491 min
Histogram: 1 0 0 1 1 0 0 0 0 1
Nghost:            987 ave        1081 max         925 min
Histogram: 1 0 1 1 0 0 0 0 0 1
Neighs:              0 ave           0 max           0 min
Histogram: 4 0 0 0 0 0 0 0 0 0

Total # of neighbors = 0
Ave neighs/atom = 0
Ave special neighs/atom = 2.2229299
Neighbor list builds = 0
Dangerous builds = 0
next n_loop
jump SELF runloop
change_box all xy delta ${delta_gamma_distance} remap
change_box all xy delta 0.2554 remap
Changing box ...
  triclinic box = (-12.77 -12.77 -12.77) to (12.77 12.77 12.77) with tilt (3.5756 0 0)
if "${xy} == ${flip_strain}" then "change_box all xy final -${flip_strain}"
run ${shear_every}
run 1000
WARNING: Using a manybody potential with bonds/angles/dihedrals and special_bond exclusions (../pair.cpp:242)
Per MPI rank memory allocation (min/avg/max) = 13.64 | 13.65 | 13.65 Mbytes
   Step          Temp            Xy        c_presion[4] 
     13000   0.0053504559   3.5756        -0.023342928  
     13999   0.0057927675   3.5756        -0.00069930968
     14000   0.0058416705   3.5756        -0.0017549821 
Loop time of 0.279645 on 4 procs for 1000 steps with 6280 atoms

Performance: 308963.176 tau/day, 3575.963 timesteps/s, 22.457 Matom-step/s
99.9% CPU use with 4 MPI tasks x no OpenMP threads

MPI task timing breakdown:
Section |  min time  |  avg time  |  max time  |%varavg| %total
---------------------------------------------------------------
Pair    | 0.087751   | 0.096099   | 0.10754    |   2.3 | 34.36
Bond    | 0.05366    | 0.0557     | 0.059915   |   1.1 | 19.92
Neigh   | 0          | 0          | 0          |   0.0 |  0.00
Comm    | 0.021348   | 0.036553   | 0.047193   |   4.9 | 13.07
Output  | 0.0014535  | 0.0015903  | 0.0017146  |   0.2 |  0.57
Modify  | 0.07905    | 0.081226   | 0.08384    |   0.6 | 29.05
Other   |            | 0.008477   |            |       |  3.03

Nlocal:           1570 ave        1676 max        1490 min
Histogram: 1 0 1 0 1 0 0 0 0 1
Nghost:         988.25 ave        1084 max         928 min
Histogram: 1 0 2 0 0 0 0 0 0 1
Neighs:              0 ave           0 max           0 min
Histogram: 4 0 0 0 0 0 0 0 0 0

Total # of neighbors = 0
Ave neighs/atom = 0
Ave special neighs/atom = 2.2229299
Neighbor list builds = 0
Dangerous builds = 0
next n_loop
jump SELF runloop
change_box all xy delta ${delta_gamma_distance} remap
change_box all xy delta 0.2554 remap
Changing box ...
  triclinic box = (-12.77 -12.77 -12.77) to (12.77 12.77 12.77) with tilt (3.831 0 0)
if "${xy} == ${flip_strain}" then "change_box all xy final -${flip_strain}"
run ${shear_every}
run 1000
WARNING: Using a manybody potential with bonds/angles/dihedrals and special_bond exclusions (../pair.cpp:242)
Per MPI rank memory allocation (min/avg/max) = 13.65 | 13.65 | 13.66 Mbytes
   Step          Temp            Xy        c_presion[4] 
     14000   0.0058416705   3.831         -0.023536875  
     14999   0.0055495064   3.831         -0.0037602216 
     15000   0.0057187038   3.831         -0.0027664924 
Loop time of 0.278442 on 4 procs for 1000 steps with 6280 atoms

Performance: 310298.380 tau/day, 3591.416 timesteps/s, 22.554 Matom-step/s
99.9% CPU use with 4 MPI tasks x no OpenMP threads

MPI task timing breakdown:
Section |  min time  |  avg time  |  max time  |%varavg| %total
---------------------------------------------------------------
Pair    | 0.087754   | 0.095991   | 0.10733    |   2.3 | 34.47
Bond    | 0.053583   | 0.055547   | 0.059487   |   1.0 | 19.95
Neigh   | 0          | 0          | 0          |   0.0 |  0.00
Comm    | 0.020986   | 0.035741   | 0.046257   |   4.9 | 12.84
Output  | 0.0014567  | 0.0015667  | 0.0016649  |   0.2 |  0.56
Modify  | 0.078529   | 0.080925   | 0.083391   |   0.6 | 29.06
Other   |            | 0.008671   |            |       |  3.11

Nlocal:           1570 ave        1675 max        1491 min
Histogram: 1 0 1 0 1 0 0 0 0 1
Nghost:         985.75 ave        1080 max         929 min
Histogram: 1 0 2 0 0 0 0 0 0 1
Neighs:              0 ave           0 max           0 min
Histogram: 4 0 0 0 0 0 0 0 0 0

Total # of neighbors = 0
Ave neighs/atom = 0
Ave special neighs/atom = 2.2229299
Neighbor list builds = 0
Dangerous builds = 0
next n_loop
jump SELF runloop
change_box all xy delta ${delta_gamma_distance} remap
change_box all xy delta 0.2554 remap
Changing box ...
  triclinic box = (-12.77 -12.77 -12.77) to (12.77 12.77 12.77) with tilt (4.0864 0 0)
if "${xy} == ${flip_strain}" then "change_box all xy final -${flip_strain}"
run ${shear_every}
run 1000
WARNING: Using a manybody potential with bonds/angles/dihedrals and special_bond exclusions (../pair.cpp:242)
Per MPI rank memory allocation (min/avg/max) = 13.65 | 13.65 | 13.66 Mbytes
   Step          Temp            Xy        c_presion[4] 
     15000   0.0057187038   4.0864        -0.024612114  
     15999   0.0053943956   4.0864        -0.00099773614
     16000   0.0056343444   4.0864        -0.00087630838
Loop time of 0.278459 on 4 procs for 1000 steps with 6280 atoms

Performance: 310278.930 tau/day, 3591.191 timesteps/s, 22.553 Matom-step/s
99.8% CPU use with 4 MPI tasks x no OpenMP threads

MPI task timing breakdown:
Section |  min time  |  avg time  |  max time  |%varavg| %total
---------------------------------------------------------------
Pair    | 0.087138   | 0.095786   | 0.10658    |   2.3 | 34.40
Bond    | 0.053754   | 0.05576    | 0.05897    |   0.8 | 20.02
Neigh   | 0          | 0          | 0          |   0.0 |  0.00
Comm    | 0.021815   | 0.035344   | 0.046285   |   4.7 | 12.69
Output  | 0.0014416  | 0.0015468  | 0.0016382  |   0.2 |  0.56
Modify  | 0.079311   | 0.08152    | 0.0839     |   0.6 | 29.28
Other   |            | 0.008502   |            |       |  3.05

Nlocal:           1570 ave        1673 max        1492 min
Histogram: 1 0 1 0 1 0 0 0 0 1
Nghost:          985.5 ave        1082 max         930 min
Histogram: 1 1 1 0 0 0 0 0 0 1
Neighs:              0 ave           0 max           0 min
Histogram: 4 0 0 0 0 0 0 0 0 0

Total # of neighbors = 0
Ave neighs/atom = 0
Ave special neighs/atom = 2.2229299
Neighbor list builds = 0
Dangerous builds = 0
next n_loop
jump SELF runloop
change_box all xy delta ${delta_gamma_distance} remap
change_box all xy delta 0.2554 remap
Changing box ...
  triclinic box = (-12.77 -12.77 -12.77) to (12.77 12.77 12.77) with tilt (4.3418 0 0)
if "${xy} == ${flip_strain}" then "change_box all xy final -${flip_strain}"
run ${shear_every}
run 1000
WARNING: Using a manybody potential with bonds/angles/dihedrals and special_bond exclusions (../pair.cpp:242)
Per MPI rank memory allocation (min/avg/max) = 13.65 | 13.65 | 13.66 Mbytes
   Step          Temp            Xy        c_presion[4] 
     16000   0.0056343444   4.3418        -0.022935616  
     16999   0.0055974466   4.3418        -0.0025778815 
     17000   0.0056945214   4.3418        -0.0017635728 
Loop time of 0.278404 on 4 procs for 1000 steps with 6280 atoms

Performance: 310340.788 tau/day, 3591.907 timesteps/s, 22.557 Matom-step/s
100.0% CPU use with 4 MPI tasks x no OpenMP threads

MPI task timing breakdown:
Section |  min time  |  avg time  |  max time  |%varavg| %total
---------------------------------------------------------------
Pair    | 0.086812   | 0.096002   | 0.10844    |   2.5 | 34.48
Bond    | 0.053643   | 0.055421   | 0.05917    |   0.9 | 19.91
Neigh   | 0          | 0          | 0          |   0.0 |  0.00
Comm    | 0.020242   | 0.035888   | 0.047218   |   5.2 | 12.89
Output  | 0.0014453  | 0.0015682  | 0.0016723  |   0.2 |  0.56
Modify  | 0.078515   | 0.08095    | 0.083503   |   0.6 | 29.08
Other   |            | 0.008574   |            |       |  3.08

Nlocal:           1570 ave        1673 max        1492 min
Histogram: 1 0 1 0 1 0 0 0 0 1
Nghost:          987.5 ave        1081 max         934 min
Histogram: 1 1 1 0 0 0 0 0 0 1
Neighs:              0 ave           0 max           0 min
Histogram: 4 0 0 0 0 0 0 0 0 0

Total # of neighbors = 0
Ave neighs/atom = 0
Ave special neighs/atom = 2.2229299
Neighbor list builds = 0
Dangerous builds = 0
next n_loop
jump SELF runloop
change_box all xy delta ${delta_gamma_distance} remap
change_box all xy delta 0.2554 remap
Changing box ...
  triclinic box = (-12.77 -12.77 -12.77) to (12.77 12.77 12.77) with tilt (4.5972 0 0)
if "${xy} == ${flip_strain}" then "change_box all xy final -${flip_strain}"
run ${shear_every}
run 1000
WARNING: Using a manybody potential with bonds/angles/dihedrals and special_bond exclusions (../pair.cpp:242)
Per MPI rank memory allocation (min/avg/max) = 13.65 | 13.66 | 13.66 Mbytes
   Step          Temp            Xy        c_presion[4] 
     17000   0.0056945214   4.5972        -0.023971573  
     17999   0.0056682684   4.5972        -0.0041203297 
     18000   0.0056790352   4.5972        -0.0037505229 
Loop time of 0.277517 on 4 procs for 1000 steps with 6280 atoms

Performance: 311331.922 tau/day, 3603.379 timesteps/s, 22.629 Matom-step/s
99.9% CPU use with 4 MPI tasks x no OpenMP threads

MPI task timing breakdown:
Section |  min time  |  avg time  |  max time  |%varavg| %total
---------------------------------------------------------------
Pair    | 0.086548   | 0.095944   | 0.10805    |   2.5 | 34.57
Bond    | 0.053752   | 0.055433   | 0.059089   |   0.9 | 19.97
Neigh   | 0          | 0          | 0          |   0.0 |  0.00
Comm    | 0.019838   | 0.035057   | 0.046427   |   5.1 | 12.63
Output  | 0.001462   | 0.0015679  | 0.0016686  |   0.2 |  0.56
Modify  | 0.078497   | 0.08097    | 0.083603   |   0.6 | 29.18
Other   |            | 0.008546   |            |       |  3.08

Nlocal:           1570 ave        1674 max        1492 min
Histogram: 1 0 1 0 1 0 0 0 0 1
Nghost:         990.25 ave        1087 max         940 min
Histogram: 1 1 1 0 0 0 0 0 0 1
Neighs:              0 ave           0 max           0 min
Histogram: 4 0 0 0 0 0 0 0 0 0

Total # of neighbors = 0
Ave neighs/atom = 0
Ave special neighs/atom = 2.2229299
Neighbor list builds = 0
Dangerous builds = 0
next n_loop
jump SELF runloop
change_box all xy delta ${delta_gamma_distance} remap
change_box all xy delta 0.2554 remap
Changing box ...
  triclinic box = (-12.77 -12.77 -12.77) to (12.77 12.77 12.77) with tilt (4.8526 0 0)
if "${xy} == ${flip_strain}" then "change_box all xy final -${flip_strain}"
run ${shear_every}
run 1000
WARNING: Using a manybody potential with bonds/angles/dihedrals and special_bond exclusions (../pair.cpp:242)
Per MPI rank memory allocation (min/avg/max) = 13.65 | 13.66 | 13.66 Mbytes
   Step          Temp            Xy        c_presion[4] 
     18000   0.0056790352   4.8526        -0.025703397  
     18999   0.0056774286   4.8526        -0.0036816465 
     19000   0.0057416664   4.8526        -0.0036187356 
Loop time of 0.280562 on 4 procs for 1000 steps with 6280 atoms

Performance: 307953.181 tau/day, 3564.273 timesteps/s, 22.384 Matom-step/s
99.8% CPU use with 4 MPI tasks x no OpenMP threads

MPI task timing breakdown:
Section |  min time  |  avg time  |  max time  |%varavg| %total
---------------------------------------------------------------
Pair    | 0.086579   | 0.096644   | 0.10807    |   2.5 | 34.45
Bond    | 0.053866   | 0.055766   | 0.059151   |   0.9 | 19.88
Neigh   | 0          | 0          | 0          |   0.0 |  0.00
Comm    | 0.021708   | 0.036172   | 0.048317   |   5.0 | 12.89
Output  | 0.0014371  | 0.0015603  | 0.001672   |   0.2 |  0.56
Modify  | 0.078815   | 0.081511   | 0.083825   |   0.7 | 29.05
Other   |            | 0.008909   |            |       |  3.18

Nlocal:           1570 ave        1674 max        1490 min
Histogram: 1 0 1 0 1 0 0 0 0 1
Nghost:          991.5 ave        1088 max         940 min
Histogram: 1 1 1 0 0 0 0 0 0 1
Neighs:              0 ave           0 max           0 min
Histogram: 4 0 0 0 0 0 0 0 0 0

Total # of neighbors = 0
Ave neighs/atom = 0
Ave special neighs/atom = 2.2229299
Neighbor list builds = 0
Dangerous builds = 0
next n_loop
jump SELF runloop
change_box all xy delta ${delta_gamma_distance} remap
change_box all xy delta 0.2554 remap
Changing box ...
  triclinic box = (-12.77 -12.77 -12.77) to (12.77 12.77 12.77) with tilt (5.108 0 0)
if "${xy} == ${flip_strain}" then "change_box all xy final -${flip_strain}"
run ${shear_every}
run 1000
WARNING: Using a manybody potential with bonds/angles/dihedrals and special_bond exclusions (../pair.cpp:242)
Per MPI rank memory allocation (min/avg/max) = 13.66 | 13.66 | 13.67 Mbytes
   Step          Temp            Xy        c_presion[4] 
     19000   0.0057416664   5.108         -0.025982795  
     19999   0.00539932     5.108         -0.00047186032
     20000   0.0053490823   5.108         -0.00051215062
Loop time of 0.27849 on 4 procs for 1000 steps with 6280 atoms

Performance: 310244.070 tau/day, 3590.788 timesteps/s, 22.550 Matom-step/s
100.0% CPU use with 4 MPI tasks x no OpenMP threads

MPI task timing breakdown:
Section |  min time  |  avg time  |  max time  |%varavg| %total
---------------------------------------------------------------
Pair    | 0.086251   | 0.096118   | 0.10789    |   2.5 | 34.51
Bond    | 0.053794   | 0.055464   | 0.059098   |   0.9 | 19.92
Neigh   | 0          | 0          | 0          |   0.0 |  0.00
Comm    | 0.020585   | 0.035536   | 0.047267   |   5.1 | 12.76
Output  | 0.0015166  | 0.0016312  | 0.0017302  |   0.2 |  0.59
Modify  | 0.078754   | 0.081062   | 0.083582   |   0.6 | 29.11
Other   |            | 0.008679   |            |       |  3.12

Nlocal:           1570 ave        1676 max        1487 min
Histogram: 1 0 1 0 1 0 0 0 0 1
Nghost:            991 ave        1090 max         940 min
Histogram: 1 2 0 0 0 0 0 0 0 1
Neighs:              0 ave           0 max           0 min
Histogram: 4 0 0 0 0 0 0 0 0 0

Total # of neighbors = 0
Ave neighs/atom = 0
Ave special neighs/atom = 2.2229299
Neighbor list builds = 0
Dangerous builds = 0
next n_loop
jump SELF runloop
change_box all xy delta ${delta_gamma_distance} remap
change_box all xy delta 0.2554 remap
Changing box ...
  triclinic box = (-12.77 -12.77 -12.77) to (12.77 12.77 12.77) with tilt (5.3634 0 0)
if "${xy} == ${flip_strain}" then "change_box all xy final -${flip_strain}"
run ${shear_every}
run 1000
WARNING: Using a manybody potential with bonds/angles/dihedrals and special_bond exclusions (../pair.cpp:242)
Per MPI rank memory allocation (min/avg/max) = 13.66 | 13.66 | 13.67 Mbytes
   Step          Temp            Xy        c_presion[4] 
     20000   0.0053490823   5.3634        -0.023453479  
     20999   0.0056201258   5.3634        -0.0029898211 
     21000   0.0054563168   5.3634        -0.0036103811 
Loop time of 0.279239 on 4 procs for 1000 steps with 6280 atoms

Performance: 309411.864 tau/day, 3581.156 timesteps/s, 22.490 Matom-step/s
99.9% CPU use with 4 MPI tasks x no OpenMP threads

MPI task timing breakdown:
Section |  min time  |  avg time  |  max time  |%varavg| %total
---------------------------------------------------------------
Pair    | 0.086999   | 0.096128   | 0.108      |   2.4 | 34.43
Bond    | 0.054067   | 0.055942   | 0.059329   |   0.9 | 20.03
Neigh   | 0          | 0          | 0          |   0.0 |  0.00
Comm    | 0.021067   | 0.035829   | 0.047118   |   5.0 | 12.83
Output  | 0.0014111  | 0.0015168  | 0.0016144  |   0.2 |  0.54
Modify  | 0.078581   | 0.080901   | 0.083369   |   0.6 | 28.97
Other   |            | 0.008922   |            |       |  3.20

Nlocal:           1570 ave        1675 max        1488 min
Histogram: 1 0 1 0 1 0 0 0 0 1
Nghost:          989.5 ave        1089 max         939 min
Histogram: 1 2 0 0 0 0 0 0 0 1
Neighs:              0 ave           0 max           0 min
Histogram: 4 0 0 0 0 0 0 0 0 0

Total # of neighbors = 0
Ave neighs/atom = 0
Ave special neighs/atom = 2.2229299
Neighbor list builds = 0
Dangerous builds = 0
next n_loop
jump SELF runloop
change_box all xy delta ${delta_gamma_distance} remap
change_box all xy delta 0.2554 remap
Changing box ...
  triclinic box = (-12.77 -12.77 -12.77) to (12.77 12.77 12.77) with tilt (5.6188 0 0)
if "${xy} == ${flip_strain}" then "change_box all xy final -${flip_strain}"
run ${shear_every}
run 1000
WARNING: Using a manybody potential with bonds/angles/dihedrals and special_bond exclusions (../pair.cpp:242)
Per MPI rank memory allocation (min/avg/max) = 13.66 | 13.66 | 13.67 Mbytes
   Step          Temp            Xy        c_presion[4] 
     21000   0.0054563168   5.6188        -0.025554319  
     21999   0.0057272773   5.6188        -0.0030051748 
     22000   0.0056601815   5.6188        -0.002711646  
Loop time of 0.277119 on 4 procs for 1000 steps with 6280 atoms

Performance: 311779.691 tau/day, 3608.561 timesteps/s, 22.662 Matom-step/s
99.6% CPU use with 4 MPI tasks x no OpenMP threads

MPI task timing breakdown:
Section |  min time  |  avg time  |  max time  |%varavg| %total
---------------------------------------------------------------
Pair    | 0.087042   | 0.096117   | 0.10755    |   2.4 | 34.68
Bond    | 0.053812   | 0.055579   | 0.058974   |   0.9 | 20.06
Neigh   | 0          | 0          | 0          |   0.0 |  0.00
Comm    | 0.020478   | 0.034805   | 0.045955   |   4.9 | 12.56
Output  | 0.001442   | 0.0015533  | 0.0016601  |   0.2 |  0.56
Modify  | 0.078343   | 0.08077    | 0.083176   |   0.6 | 29.15
Other   |            | 0.008295   |            |       |  2.99

Nlocal:           1570 ave        1671 max        1489 min
Histogram: 1 0 1 0 1 0 0 0 0 1
Nghost:         991.75 ave        1089 max         941 min
Histogram: 1 2 0 0 0 0 0 0 0 1
Neighs:              0 ave           0 max           0 min
Histogram: 4 0 0 0 0 0 0 0 0 0

Total # of neighbors = 0
Ave neighs/atom = 0
Ave special neighs/atom = 2.2229299
Neighbor list builds = 0
Dangerous builds = 0
next n_loop
jump SELF runloop
change_box all xy delta ${delta_gamma_distance} remap
change_box all xy delta 0.2554 remap
Changing box ...
  triclinic box = (-12.77 -12.77 -12.77) to (12.77 12.77 12.77) with tilt (5.8742 0 0)
if "${xy} == ${flip_strain}" then "change_box all xy final -${flip_strain}"
run ${shear_every}
run 1000
WARNING: Using a manybody potential with bonds/angles/dihedrals and special_bond exclusions (../pair.cpp:242)
Per MPI rank memory allocation (min/avg/max) = 13.66 | 13.67 | 13.67 Mbytes
   Step          Temp            Xy        c_presion[4] 
     22000   0.0056601815   5.8742        -0.025023316  
     22999   0.0058088184   5.8742        -0.0038848687 
     23000   0.0059049919   5.8742        -0.0035004477 
Loop time of 0.279106 on 4 procs for 1000 steps with 6280 atoms

Performance: 309560.097 tau/day, 3582.871 timesteps/s, 22.500 Matom-step/s
100.0% CPU use with 4 MPI tasks x no OpenMP threads

MPI task timing breakdown:
Section |  min time  |  avg time  |  max time  |%varavg| %total
---------------------------------------------------------------
Pair    | 0.087715   | 0.096612   | 0.1086     |   2.4 | 34.61
Bond    | 0.054274   | 0.055953   | 0.059133   |   0.8 | 20.05
Neigh   | 0          | 0          | 0          |   0.0 |  0.00
Comm    | 0.020984   | 0.035607   | 0.046517   |   4.9 | 12.76
Output  | 0.0014416  | 0.0015569  | 0.0016591  |   0.2 |  0.56
Modify  | 0.078603   | 0.080901   | 0.083335   |   0.6 | 28.99
Other   |            | 0.008475   |            |       |  3.04

Nlocal:           1570 ave        1669 max        1490 min
Histogram: 1 0 1 0 1 0 0 0 0 1
Nghost:          990.5 ave        1087 max         941 min
Histogram: 1 2 0 0 0 0 0 0 0 1
Neighs:              0 ave           0 max           0 min
Histogram: 4 0 0 0 0 0 0 0 0 0

Total # of neighbors = 0
Ave neighs/atom = 0
Ave special neighs/atom = 2.2229299
Neighbor list builds = 0
Dangerous builds = 0
next n_loop
jump SELF runloop
change_box all xy delta ${delta_gamma_distance} remap
change_box all xy delta 0.2554 remap
Changing box ...
  triclinic box = (-12.77 -12.77 -12.77) to (12.77 12.77 12.77) with tilt (6.1296 0 0)
if "${xy} == ${flip_strain}" then "change_box all xy final -${flip_strain}"
run ${shear_every}
run 1000
WARNING: Using a manybody potential with bonds/angles/dihedrals and special_bond exclusions (../pair.cpp:242)
Per MPI rank memory allocation (min/avg/max) = 13.67 | 13.67 | 13.68 Mbytes
   Step          Temp            Xy        c_presion[4] 
     23000   0.0059049919   6.1296        -0.025702721  
     23999   0.0054879393   6.1296        -0.0033773359 
     24000   0.005520296    6.1296        -0.0033187525 
Loop time of 0.277739 on 4 procs for 1000 steps with 6280 atoms

Performance: 311083.211 tau/day, 3600.500 timesteps/s, 22.611 Matom-step/s
100.0% CPU use with 4 MPI tasks x no OpenMP threads

MPI task timing breakdown:
Section |  min time  |  avg time  |  max time  |%varavg| %total
---------------------------------------------------------------
Pair    | 0.086893   | 0.096483   | 0.10839    |   2.5 | 34.74
Bond    | 0.053946   | 0.055962   | 0.059017   |   0.8 | 20.15
Neigh   | 0          | 0          | 0          |   0.0 |  0.00
Comm    | 0.020221   | 0.034739   | 0.046604   |   5.1 | 12.51
Output  | 0.0014169  | 0.0015243  | 0.0016171  |   0.2 |  0.55
Modify  | 0.078401   | 0.08075    | 0.083143   |   0.6 | 29.07
Other   |            | 0.008281   |            |       |  2.98

Nlocal:           1570 ave        1669 max        1489 min
Histogram: 1 0 1 0 0 1 0 0 0 1
Nghost:         990.25 ave        1086 max         940 min
Histogram: 1 1 1 0 0 0 0 0 0 1
Neighs:              0 ave           0 max           0 min
Histogram: 4 0 0 0 0 0 0 0 0 0

Total # of neighbors = 0
Ave neighs/atom = 0
Ave special neighs/atom = 2.2229299
Neighbor list builds = 0
Dangerous builds = 0
next n_loop
jump SELF runloop
change_box all xy delta ${delta_gamma_distance} remap
change_box all xy delta 0.2554 remap
Changing box ...
  triclinic box = (-12.77 -12.77 -12.77) to (12.77 12.77 12.77) with tilt (6.385 0 0)
if "${xy} == ${flip_strain}" then "change_box all xy final -${flip_strain}"
run ${shear_every}
run 1000
WARNING: Using a manybody potential with bonds/angles/dihedrals and special_bond exclusions (../pair.cpp:242)
Per MPI rank memory allocation (min/avg/max) = 13.67 | 13.68 | 13.68 Mbytes
   Step          Temp            Xy        c_presion[4] 
     24000   0.005520296    6.385         -0.026514778  
     24999   0.0055128396   6.385         -0.0044362573 
     25000   0.0055563768   6.385         -0.0038192506 
Loop time of 0.283233 on 4 procs for 1000 steps with 6280 atoms

Performance: 305049.143 tau/day, 3530.661 timesteps/s, 22.173 Matom-step/s
100.0% CPU use with 4 MPI tasks x no OpenMP threads

MPI task timing breakdown:
Section |  min time  |  avg time  |  max time  |%varavg| %total
---------------------------------------------------------------
Pair    | 0.090318   | 0.097487   | 0.10799    |   2.1 | 34.42
Bond    | 0.055468   | 0.056635   | 0.058865   |   0.6 | 20.00
Neigh   | 0          | 0          | 0          |   0.0 |  0.00
Comm    | 0.024798   | 0.037027   | 0.045531   |   3.9 | 13.07
Output  | 0.001441   | 0.0015587  | 0.0016701  |   0.2 |  0.55
Modify  | 0.079263   | 0.081518   | 0.083893   |   0.6 | 28.78
Other   |            | 0.009007   |            |       |  3.18

Nlocal:           1570 ave        1670 max        1488 min
Histogram: 1 0 0 1 0 1 0 0 0 1
Nghost:          992.5 ave        1089 max         941 min
Histogram: 1 1 1 0 0 0 0 0 0 1
Neighs:              0 ave           0 max           0 min
Histogram: 4 0 0 0 0 0 0 0 0 0

Total # of neighbors = 0
Ave neighs/atom = 0
Ave special neighs/atom = 2.2229299
Neighbor list builds = 0
Dangerous builds = 0
next n_loop
jump SELF runloop
change_box all xy delta ${delta_gamma_distance} remap
change_box all xy delta 0.2554 remap
Changing box ...
  triclinic box = (-12.77 -12.77 -12.77) to (12.77 12.77 12.77) with tilt (6.6404 0 0)
if "${xy} == ${flip_strain}" then "change_box all xy final -${flip_strain}"
run ${shear_every}
run 1000
WARNING: Using a manybody potential with bonds/angles/dihedrals and special_bond exclusions (../pair.cpp:242)
Per MPI rank memory allocation (min/avg/max) = 13.67 | 13.68 | 13.68 Mbytes
   Step          Temp            Xy        c_presion[4] 
     25000   0.0055563768   6.6404        -0.026538925  
     25999   0.0057078984   6.6404        -0.003367067  
     26000   0.0059159383   6.6404        -0.0042250147 
Loop time of 0.282764 on 4 procs for 1000 steps with 6280 atoms

Performance: 305555.527 tau/day, 3536.522 timesteps/s, 22.209 Matom-step/s
99.6% CPU use with 4 MPI tasks x no OpenMP threads

MPI task timing breakdown:
Section |  min time  |  avg time  |  max time  |%varavg| %total
---------------------------------------------------------------
Pair    | 0.087334   | 0.097307   | 0.11095    |   2.7 | 34.41
Bond    | 0.053991   | 0.055796   | 0.059647   |   1.0 | 19.73
Neigh   | 0          | 0          | 0          |   0.0 |  0.00
Comm    | 0.020967   | 0.037886   | 0.050049   |   5.5 | 13.40
Output  | 0.0014447  | 0.0015676  | 0.0016645  |   0.2 |  0.55
Modify  | 0.078326   | 0.081046   | 0.083937   |   0.7 | 28.66
Other   |            | 0.00916    |            |       |  3.24

Nlocal:           1570 ave        1675 max        1485 min
Histogram: 1 0 1 0 0 1 0 0 0 1
Nghost:         995.25 ave        1095 max         946 min
Histogram: 1 2 0 0 0 0 0 0 0 1
Neighs:              0 ave           0 max           0 min
Histogram: 4 0 0 0 0 0 0 0 0 0

Total # of neighbors = 0
Ave neighs/atom = 0
Ave special neighs/atom = 2.2229299
Neighbor list builds = 0
Dangerous builds = 0
next n_loop
jump SELF runloop
change_box all xy delta ${delta_gamma_distance} remap
change_box all xy delta 0.2554 remap
Changing box ...
  triclinic box = (-12.77 -12.77 -12.77) to (12.77 12.77 12.77) with tilt (6.8958 0 0)
if "${xy} == ${flip_strain}" then "change_box all xy final -${flip_strain}"
run ${shear_every}
run 1000
WARNING: Using a manybody potential with bonds/angles/dihedrals and special_bond exclusions (../pair.cpp:242)
Per MPI rank memory allocation (min/avg/max) = 13.68 | 13.68 | 13.69 Mbytes
   Step          Temp            Xy        c_presion[4] 
     26000   0.0059159383   6.8958        -0.026806875  
     26999   0.0055003698   6.8958        -0.005626151  
     27000   0.0055013989   6.8958        -0.00517797   
Loop time of 0.276497 on 4 procs for 1000 steps with 6280 atoms

Performance: 312480.581 tau/day, 3616.673 timesteps/s, 22.713 Matom-step/s
100.0% CPU use with 4 MPI tasks x no OpenMP threads

MPI task timing breakdown:
Section |  min time  |  avg time  |  max time  |%varavg| %total
---------------------------------------------------------------
Pair    | 0.087698   | 0.096446   | 0.10762    |   2.3 | 34.88
Bond    | 0.053786   | 0.055412   | 0.058391   |   0.8 | 20.04
Neigh   | 0          | 0          | 0          |   0.0 |  0.00
Comm    | 0.020162   | 0.033787   | 0.044222   |   4.8 | 12.22
Output  | 0.0014091  | 0.0015224  | 0.0016209  |   0.2 |  0.55
Modify  | 0.07853    | 0.081007   | 0.083487   |   0.6 | 29.30
Other   |            | 0.008323   |            |       |  3.01

Nlocal:           1570 ave        1676 max        1483 min
Histogram: 1 0 1 0 0 1 0 0 0 1
Nghost:         997.25 ave        1100 max         950 min
Histogram: 1 2 0 0 0 0 0 0 0 1
Neighs:              0 ave           0 max           0 min
Histogram: 4 0 0 0 0 0 0 0 0 0

Total # of neighbors = 0
Ave neighs/atom = 0
Ave special neighs/atom = 2.2229299
Neighbor list builds = 0
Dangerous builds = 0
next n_loop
jump SELF runloop
change_box all xy delta ${delta_gamma_distance} remap
change_box all xy delta 0.2554 remap
Changing box ...
  triclinic box = (-12.77 -12.77 -12.77) to (12.77 12.77 12.77) with tilt (7.1512 0 0)
if "${xy} == ${flip_strain}" then "change_box all xy final -${flip_strain}"
run ${shear_every}
run 1000
WARNING: Using a manybody potential with bonds/angles/dihedrals and special_bond exclusions (../pair.cpp:242)
Per MPI rank memory allocation (min/avg/max) = 13.68 | 13.68 | 13.69 Mbytes
   Step          Temp            Xy        c_presion[4] 
     27000   0.0055013989   7.1512        -0.028134221  
     27999   0.0057853838   7.1512        -0.0061498778 
     28000   0.0059479751   7.1512        -0.0061029172 
Loop time of 0.275782 on 4 procs for 1000 steps with 6280 atoms

Performance: 313290.395 tau/day, 3626.046 timesteps/s, 22.772 Matom-step/s
100.0% CPU use with 4 MPI tasks x no OpenMP threads

MPI task timing breakdown:
Section |  min time  |  avg time  |  max time  |%varavg| %total
---------------------------------------------------------------
Pair    | 0.087481   | 0.096352   | 0.10709    |   2.3 | 34.94
Bond    | 0.05383    | 0.055436   | 0.058246   |   0.8 | 20.10
Neigh   | 0          | 0          | 0          |   0.0 |  0.00
Comm    | 0.020157   | 0.033231   | 0.044      |   4.8 | 12.05
Output  | 0.0014451  | 0.0015651  | 0.0016676  |   0.2 |  0.57
Modify  | 0.078435   | 0.0809     | 0.083415   |   0.7 | 29.33
Other   |            | 0.008298   |            |       |  3.01

Nlocal:           1570 ave        1678 max        1483 min
Histogram: 1 0 1 0 0 1 0 0 0 1
Nghost:         997.75 ave        1098 max         956 min
Histogram: 2 1 0 0 0 0 0 0 0 1
Neighs:              0 ave           0 max           0 min
Histogram: 4 0 0 0 0 0 0 0 0 0

Total # of neighbors = 0
Ave neighs/atom = 0
Ave special neighs/atom = 2.2229299
Neighbor list builds = 0
Dangerous builds = 0
next n_loop
jump SELF runloop
change_box all xy delta ${delta_gamma_distance} remap
change_box all xy delta 0.2554 remap
Changing box ...
  triclinic box = (-12.77 -12.77 -12.77) to (12.77 12.77 12.77) with tilt (7.4066 0 0)
if "${xy} == ${flip_strain}" then "change_box all xy final -${flip_strain}"
run ${shear_every}
run 1000
WARNING: Using a manybody potential with bonds/angles/dihedrals and special_bond exclusions (../pair.cpp:242)
Per MPI rank memory allocation (min/avg/max) = 13.68 | 13.69 | 13.69 Mbytes
   Step          Temp            Xy        c_presion[4] 
     28000   0.0059479751   7.4066        -0.028654935  
     28999   0.0058954265   7.4066        -0.0059513258 
     29000   0.0057723978   7.4066        -0.0067354806 
Loop time of 0.276736 on 4 procs for 1000 steps with 6280 atoms

Performance: 312210.879 tau/day, 3613.552 timesteps/s, 22.693 Matom-step/s
100.0% CPU use with 4 MPI tasks x no OpenMP threads

MPI task timing breakdown:
Section |  min time  |  avg time  |  max time  |%varavg| %total
---------------------------------------------------------------
Pair    | 0.087204   | 0.09637    | 0.10764    |   2.4 | 34.82
Bond    | 0.053862   | 0.055641   | 0.058373   |   0.7 | 20.11
Neigh   | 0          | 0          | 0          |   0.0 |  0.00
Comm    | 0.020118   | 0.033636   | 0.044866   |   4.9 | 12.15
Output  | 0.001439   | 0.0015617  | 0.0016882  |   0.2 |  0.56
Modify  | 0.078466   | 0.080985   | 0.083691   |   0.7 | 29.26
Other   |            | 0.008542   |            |       |  3.09

Nlocal:           1570 ave        1681 max        1482 min
Histogram: 1 0 1 0 0 1 0 0 0 1
Nghost:          999.5 ave        1103 max         955 min
Histogram: 2 1 0 0 0 0 0 0 0 1
Neighs:              0 ave           0 max           0 min
Histogram: 4 0 0 0 0 0 0 0 0 0

Total # of neighbors = 0
Ave neighs/atom = 0
Ave special neighs/atom = 2.2229299
Neighbor list builds = 0
Dangerous builds = 0
next n_loop
jump SELF runloop
change_box all xy delta ${delta_gamma_distance} remap
change_box all xy delta 0.2554 remap
Changing box ...
  triclinic box = (-12.77 -12.77 -12.77) to (12.77 12.77 12.77) with tilt (7.662 0 0)
if "${xy} == ${flip_strain}" then "change_box all xy final -${flip_strain}"
run ${shear_every}
run 1000
WARNING: Using a manybody potential with bonds/angles/dihedrals and special_bond exclusions (../pair.cpp:242)
Per MPI rank memory allocation (min/avg/max) = 13.68 | 13.69 | 13.69 Mbytes
   Step          Temp            Xy        c_presion[4] 
     29000   0.0057723978   7.662         -0.029348607  
     29999   0.0058220722   7.662         -0.0065854917 
     30000   0.0058983992   7.662         -0.0065866548 
Loop time of 0.277406 on 4 procs for 1000 steps with 6280 atoms

Performance: 311456.483 tau/day, 3604.820 timesteps/s, 22.638 Matom-step/s
99.6% CPU use with 4 MPI tasks x no OpenMP threads

MPI task timing breakdown:
Section |  min time  |  avg time  |  max time  |%varavg| %total
---------------------------------------------------------------
Pair    | 0.086867   | 0.096507   | 0.10801    |   2.4 | 34.79
Bond    | 0.053377   | 0.055518   | 0.05884    |   0.9 | 20.01
Neigh   | 0          | 0          | 0          |   0.0 |  0.00
Comm    | 0.019895   | 0.034267   | 0.04631    |   5.1 | 12.35
Output  | 0.0014361  | 0.0015521  | 0.0016683  |   0.2 |  0.56
Modify  | 0.078412   | 0.081062   | 0.083727   |   0.7 | 29.22
Other   |            | 0.0085     |            |       |  3.06

Nlocal:           1570 ave        1682 max        1480 min
Histogram: 1 0 1 0 0 1 0 0 0 1
Nghost:            999 ave        1105 max         956 min
Histogram: 3 0 0 0 0 0 0 0 0 1
Neighs:              0 ave           0 max           0 min
Histogram: 4 0 0 0 0 0 0 0 0 0

Total # of neighbors = 0
Ave neighs/atom = 0
Ave special neighs/atom = 2.2229299
Neighbor list builds = 0
Dangerous builds = 0
next n_loop
jump SELF runloop
change_box all xy delta ${delta_gamma_distance} remap
change_box all xy delta 0.2554 remap
Changing box ...
  triclinic box = (-12.77 -12.77 -12.77) to (12.77 12.77 12.77) with tilt (7.9174 0 0)
if "${xy} == ${flip_strain}" then "change_box all xy final -${flip_strain}"
run ${shear_every}
run 1000
WARNING: Using a manybody potential with bonds/angles/dihedrals and special_bond exclusions (../pair.cpp:242)
Per MPI rank memory allocation (min/avg/max) = 13.69 | 13.69 | 13.7 Mbytes
   Step          Temp            Xy        c_presion[4] 
     30000   0.0058983992   7.9174        -0.029290396  
     30999   0.005827802    7.9174        -0.0068121041 
     31000   0.0057737697   7.9174        -0.0060443108 
Loop time of 0.284544 on 4 procs for 1000 steps with 6280 atoms

Performance: 303643.590 tau/day, 3514.393 timesteps/s, 22.070 Matom-step/s
99.2% CPU use with 4 MPI tasks x no OpenMP threads

MPI task timing breakdown:
Section |  min time  |  avg time  |  max time  |%varavg| %total
---------------------------------------------------------------
Pair    | 0.087021   | 0.097312   | 0.10827    |   2.4 | 34.20
Bond    | 0.053478   | 0.056258   | 0.058938   |   0.9 | 19.77
Neigh   | 0          | 0          | 0          |   0.0 |  0.00
Comm    | 0.025151   | 0.038516   | 0.051661   |   4.8 | 13.54
Output  | 0.0014493  | 0.0015655  | 0.0016706  |   0.2 |  0.55
Modify  | 0.078975   | 0.081707   | 0.084358   |   0.7 | 28.72
Other   |            | 0.009184   |            |       |  3.23

Nlocal:           1570 ave        1683 max        1480 min
Histogram: 1 0 1 0 1 0 0 0 0 1
Nghost:        1002.25 ave        1105 max         957 min
Histogram: 1 2 0 0 0 0 0 0 0 1
Neighs:              0 ave           0 max           0 min
Histogram: 4 0 0 0 0 0 0 0 0 0

Total # of neighbors = 0
Ave neighs/atom = 0
Ave special neighs/atom = 2.2229299
Neighbor list builds = 0
Dangerous builds = 0
next n_loop
jump SELF runloop
change_box all xy delta ${delta_gamma_distance} remap
change_box all xy delta 0.2554 remap
Changing box ...
  triclinic box = (-12.77 -12.77 -12.77) to (12.77 12.77 12.77) with tilt (8.1728 0 0)
if "${xy} == ${flip_strain}" then "change_box all xy final -${flip_strain}"
run ${shear_every}
run 1000
WARNING: Using a manybody potential with bonds/angles/dihedrals and special_bond exclusions (../pair.cpp:242)
Per MPI rank memory allocation (min/avg/max) = 13.69 | 13.7 | 13.7 Mbytes
   Step          Temp            Xy        c_presion[4] 
     31000   0.0057737697   8.1728        -0.028867274  
     31999   0.0056441305   8.1728        -0.0078636352 
     32000   0.0057197388   8.1728        -0.0078499962 
Loop time of 0.280996 on 4 procs for 1000 steps with 6280 atoms

Performance: 307477.919 tau/day, 3558.772 timesteps/s, 22.349 Matom-step/s
100.0% CPU use with 4 MPI tasks x no OpenMP threads

MPI task timing breakdown:
Section |  min time  |  avg time  |  max time  |%varavg| %total
---------------------------------------------------------------
Pair    | 0.087257   | 0.097163   | 0.10976    |   2.6 | 34.58
Bond    | 0.053452   | 0.055763   | 0.059504   |   1.0 | 19.84
Neigh   | 0          | 0          | 0          |   0.0 |  0.00
Comm    | 0.020607   | 0.036439   | 0.048911   |   5.3 | 12.97
Output  | 0.0015598  | 0.0016732  | 0.0017724  |   0.2 |  0.60
Modify  | 0.078608   | 0.08113    | 0.08392    |   0.7 | 28.87
Other   |            | 0.008828   |            |       |  3.14

Nlocal:           1570 ave        1685 max        1479 min
Histogram: 1 0 1 0 1 0 0 0 0 1
Nghost:           1003 ave        1107 max         961 min
Histogram: 2 1 0 0 0 0 0 0 0 1
Neighs:              0 ave           0 max           0 min
Histogram: 4 0 0 0 0 0 0 0 0 0

Total # of neighbors = 0
Ave neighs/atom = 0
Ave special neighs/atom = 2.2229299
Neighbor list builds = 0
Dangerous builds = 0
next n_loop
jump SELF runloop
change_box all xy delta ${delta_gamma_distance} remap
change_box all xy delta 0.2554 remap
Changing box ...
  triclinic box = (-12.77 -12.77 -12.77) to (12.77 12.77 12.77) with tilt (8.4282 0 0)
if "${xy} == ${flip_strain}" then "change_box all xy final -${flip_strain}"
run ${shear_every}
run 1000
WARNING: Using a manybody potential with bonds/angles/dihedrals and special_bond exclusions (../pair.cpp:242)
Per MPI rank memory allocation (min/avg/max) = 13.69 | 13.7 | 13.7 Mbytes
   Step          Temp            Xy        c_presion[4] 
     32000   0.0057197388   8.4282        -0.030337234  
     32999   0.005708854    8.4282        -0.008598943  
     33000   0.0056372997   8.4282        -0.0082442587 
Loop time of 0.282029 on 4 procs for 1000 steps with 6280 atoms

Performance: 306351.317 tau/day, 3545.733 timesteps/s, 22.267 Matom-step/s
99.9% CPU use with 4 MPI tasks x no OpenMP threads

MPI task timing breakdown:
Section |  min time  |  avg time  |  max time  |%varavg| %total
---------------------------------------------------------------
Pair    | 0.087487   | 0.097415   | 0.10941    |   2.5 | 34.54
Bond    | 0.053303   | 0.055859   | 0.059362   |   0.9 | 19.81
Neigh   | 0          | 0          | 0          |   0.0 |  0.00
Comm    | 0.021153   | 0.036202   | 0.048898   |   5.2 | 12.84
Output  | 0.0016269  | 0.0017319  | 0.0018719  |   0.2 |  0.61
Modify  | 0.078951   | 0.081595   | 0.084245   |   0.7 | 28.93
Other   |            | 0.009227   |            |       |  3.27

Nlocal:           1570 ave        1684 max        1481 min
Histogram: 1 0 1 0 1 0 0 0 0 1
Nghost:        1001.75 ave        1106 max         958 min
Histogram: 2 1 0 0 0 0 0 0 0 1
Neighs:              0 ave           0 max           0 min
Histogram: 4 0 0 0 0 0 0 0 0 0

Total # of neighbors = 0
Ave neighs/atom = 0
Ave special neighs/atom = 2.2229299
Neighbor list builds = 0
Dangerous builds = 0
next n_loop
jump SELF runloop
change_box all xy delta ${delta_gamma_distance} remap
change_box all xy delta 0.2554 remap
Changing box ...
  triclinic box = (-12.77 -12.77 -12.77) to (12.77 12.77 12.77) with tilt (8.6836 0 0)
if "${xy} == ${flip_strain}" then "change_box all xy final -${flip_strain}"
run ${shear_every}
run 1000
WARNING: Using a manybody potential with bonds/angles/dihedrals and special_bond exclusions (../pair.cpp:242)
Per MPI rank memory allocation (min/avg/max) = 13.69 | 13.7 | 13.7 Mbytes
   Step          Temp            Xy        c_presion[4] 
     33000   0.0056372997   8.6836        -0.031311735  
     33999   0.0059670323   8.6836        -0.010017706  
     34000   0.0059366194   8.6836        -0.0099540465 
Loop time of 0.284574 on 4 procs for 1000 steps with 6280 atoms

Performance: 303612.032 tau/day, 3514.028 timesteps/s, 22.068 Matom-step/s
99.7% CPU use with 4 MPI tasks x no OpenMP threads

MPI task timing breakdown:
Section |  min time  |  avg time  |  max time  |%varavg| %total
---------------------------------------------------------------
Pair    | 0.087454   | 0.097807   | 0.10955    |   2.5 | 34.37
Bond    | 0.053467   | 0.055809   | 0.05906    |   0.9 | 19.61
Neigh   | 0          | 0          | 0          |   0.0 |  0.00
Comm    | 0.023038   | 0.037667   | 0.05052    |   5.1 | 13.24
Output  | 0.0014682  | 0.0015967  | 0.0017016  |   0.2 |  0.56
Modify  | 0.079259   | 0.082034   | 0.084517   |   0.7 | 28.83
Other   |            | 0.00966    |            |       |  3.39

Nlocal:           1570 ave        1685 max        1482 min
Histogram: 1 0 1 0 1 0 0 0 0 1
Nghost:        1005.25 ave        1112 max         962 min
Histogram: 2 1 0 0 0 0 0 0 0 1
Neighs:              0 ave           0 max           0 min
Histogram: 4 0 0 0 0 0 0 0 0 0

Total # of neighbors = 0
Ave neighs/atom = 0
Ave special neighs/atom = 2.2229299
Neighbor list builds = 0
Dangerous builds = 0
next n_loop
jump SELF runloop
change_box all xy delta ${delta_gamma_distance} remap
change_box all xy delta 0.2554 remap
Changing box ...
  triclinic box = (-12.77 -12.77 -12.77) to (12.77 12.77 12.77) with tilt (8.939 0 0)
if "${xy} == ${flip_strain}" then "change_box all xy final -${flip_strain}"
run ${shear_every}
run 1000
WARNING: Using a manybody potential with bonds/angles/dihedrals and special_bond exclusions (../pair.cpp:242)
Per MPI rank memory allocation (min/avg/max) = 13.69 | 13.7 | 13.7 Mbytes
   Step          Temp            Xy        c_presion[4] 
     34000   0.0059366194   8.939         -0.032589273  
     34999   0.0064265955   8.939         -0.00977744   
     35000   0.0064275302   8.939         -0.010252993  
Loop time of 0.280846 on 4 procs for 1000 steps with 6280 atoms

Performance: 307642.096 tau/day, 3560.672 timesteps/s, 22.361 Matom-step/s
99.8% CPU use with 4 MPI tasks x no OpenMP threads

MPI task timing breakdown:
Section |  min time  |  avg time  |  max time  |%varavg| %total
---------------------------------------------------------------
Pair    | 0.087808   | 0.097516   | 0.10873    |   2.4 | 34.72
Bond    | 0.053385   | 0.056      | 0.058854   |   0.8 | 19.94
Neigh   | 0          | 0          | 0          |   0.0 |  0.00
Comm    | 0.021008   | 0.034757   | 0.047173   |   5.0 | 12.38
Output  | 0.0014487  | 0.0015604  | 0.0016639  |   0.2 |  0.56
Modify  | 0.078987   | 0.081859   | 0.084445   |   0.7 | 29.15
Other   |            | 0.009154   |            |       |  3.26

Nlocal:           1570 ave        1683 max        1482 min
Histogram: 1 0 1 0 1 0 0 0 0 1
Nghost:         1007.5 ave        1118 max         964 min
Histogram: 3 0 0 0 0 0 0 0 0 1
Neighs:              0 ave           0 max           0 min
Histogram: 4 0 0 0 0 0 0 0 0 0

Total # of neighbors = 0
Ave neighs/atom = 0
Ave special neighs/atom = 2.2229299
Neighbor list builds = 0
Dangerous builds = 0
next n_loop
jump SELF runloop
change_box all xy delta ${delta_gamma_distance} remap
change_box all xy delta 0.2554 remap
Changing box ...
  triclinic box = (-12.77 -12.77 -12.77) to (12.77 12.77 12.77) with tilt (9.1944 0 0)
if "${xy} == ${flip_strain}" then "change_box all xy final -${flip_strain}"
run ${shear_every}
run 1000
WARNING: Using a manybody potential with bonds/angles/dihedrals and special_bond exclusions (../pair.cpp:242)
Per MPI rank memory allocation (min/avg/max) = 13.7 | 13.71 | 13.71 Mbytes
   Step          Temp            Xy        c_presion[4] 
     35000   0.0064275302   9.1944        -0.032669961  
     35999   0.0060683927   9.1944        -0.010706007  
     36000   0.0060971129   9.1944        -0.009980162  
Loop time of 0.280348 on 4 procs for 1000 steps with 6280 atoms

Performance: 308188.010 tau/day, 3566.991 timesteps/s, 22.401 Matom-step/s
99.6% CPU use with 4 MPI tasks x no OpenMP threads

MPI task timing breakdown:
Section |  min time  |  avg time  |  max time  |%varavg| %total
---------------------------------------------------------------
Pair    | 0.088098   | 0.097431   | 0.10915    |   2.4 | 34.75
Bond    | 0.053153   | 0.056291   | 0.059362   |   0.9 | 20.08
Neigh   | 0          | 0          | 0          |   0.0 |  0.00
Comm    | 0.020557   | 0.034926   | 0.047576   |   5.1 | 12.46
Output  | 0.0015016  | 0.001611   | 0.0017054  |   0.2 |  0.57
Modify  | 0.078489   | 0.081137   | 0.084086   |   0.7 | 28.94
Other   |            | 0.008953   |            |       |  3.19

Nlocal:           1570 ave        1687 max        1480 min
Histogram: 1 0 1 0 1 0 0 0 0 1
Nghost:        1007.75 ave        1125 max         960 min
Histogram: 3 0 0 0 0 0 0 0 0 1
Neighs:              0 ave           0 max           0 min
Histogram: 4 0 0 0 0 0 0 0 0 0

Total # of neighbors = 0
Ave neighs/atom = 0
Ave special neighs/atom = 2.2229299
Neighbor list builds = 0
Dangerous builds = 0
next n_loop
jump SELF runloop
change_box all xy delta ${delta_gamma_distance} remap
change_box all xy delta 0.2554 remap
Changing box ...
  triclinic box = (-12.77 -12.77 -12.77) to (12.77 12.77 12.77) with tilt (9.4498 0 0)
if "${xy} == ${flip_strain}" then "change_box all xy final -${flip_strain}"
run ${shear_every}
run 1000
WARNING: Using a manybody potential with bonds/angles/dihedrals and special_bond exclusions (../pair.cpp:242)
Per MPI rank memory allocation (min/avg/max) = 13.7 | 13.71 | 13.71 Mbytes
   Step          Temp            Xy        c_presion[4] 
     36000   0.0060971129   9.4498        -0.032897354  
     36999   0.0060354595   9.4498        -0.010745312  
     37000   0.0059094197   9.4498        -0.0099893719 
Loop time of 0.279355 on 4 procs for 1000 steps with 6280 atoms

Performance: 309283.655 tau/day, 3579.672 timesteps/s, 22.480 Matom-step/s
100.0% CPU use with 4 MPI tasks x no OpenMP threads

MPI task timing breakdown:
Section |  min time  |  avg time  |  max time  |%varavg| %total
---------------------------------------------------------------
Pair    | 0.088173   | 0.097531   | 0.10903    |   2.4 | 34.91
Bond    | 0.053434   | 0.055485   | 0.0592     |   1.0 | 19.86
Neigh   | 0          | 0          | 0          |   0.0 |  0.00
Comm    | 0.020173   | 0.034935   | 0.046569   |   5.1 | 12.51
Output  | 0.0014906  | 0.0016055  | 0.001709   |   0.2 |  0.57
Modify  | 0.078385   | 0.081091   | 0.083867   |   0.7 | 29.03
Other   |            | 0.008707   |            |       |  3.12

Nlocal:           1570 ave        1687 max        1480 min
Histogram: 1 0 1 0 1 0 0 0 0 1
Nghost:         1007.5 ave        1123 max         964 min
Histogram: 3 0 0 0 0 0 0 0 0 1
Neighs:              0 ave           0 max           0 min
Histogram: 4 0 0 0 0 0 0 0 0 0

Total # of neighbors = 0
Ave neighs/atom = 0
Ave special neighs/atom = 2.2229299
Neighbor list builds = 0
Dangerous builds = 0
next n_loop
jump SELF runloop
change_box all xy delta ${delta_gamma_distance} remap
change_box all xy delta 0.2554 remap
Changing box ...
  triclinic box = (-12.77 -12.77 -12.77) to (12.77 12.77 12.77) with tilt (9.7052 0 0)
if "${xy} == ${flip_strain}" then "change_box all xy final -${flip_strain}"
run ${shear_every}
run 1000
WARNING: Using a manybody potential with bonds/angles/dihedrals and special_bond exclusions (../pair.cpp:242)
Per MPI rank memory allocation (min/avg/max) = 13.7 | 13.71 | 13.71 Mbytes
   Step          Temp            Xy        c_presion[4] 
     37000   0.0059094197   9.7052        -0.032608363  
     37999   0.0058351542   9.7052        -0.010679266  
     38000   0.0058646718   9.7052        -0.01051024   
Loop time of 0.281622 on 4 procs for 1000 steps with 6280 atoms

Performance: 306793.797 tau/day, 3550.854 timesteps/s, 22.299 Matom-step/s
100.0% CPU use with 4 MPI tasks x no OpenMP threads

MPI task timing breakdown:
Section |  min time  |  avg time  |  max time  |%varavg| %total
---------------------------------------------------------------
Pair    | 0.088809   | 0.097644   | 0.10941    |   2.4 | 34.67
Bond    | 0.053506   | 0.055779   | 0.059709   |   1.0 | 19.81
Neigh   | 0          | 0          | 0          |   0.0 |  0.00
Comm    | 0.020914   | 0.036172   | 0.047489   |   5.1 | 12.84
Output  | 0.001469   | 0.0015852  | 0.0016896  |   0.2 |  0.56
Modify  | 0.078648   | 0.081393   | 0.084201   |   0.7 | 28.90
Other   |            | 0.009048   |            |       |  3.21

Nlocal:           1570 ave        1687 max        1478 min
Histogram: 1 0 1 0 1 0 0 0 0 1
Nghost:           1005 ave        1120 max         960 min
Histogram: 3 0 0 0 0 0 0 0 0 1
Neighs:              0 ave           0 max           0 min
Histogram: 4 0 0 0 0 0 0 0 0 0

Total # of neighbors = 0
Ave neighs/atom = 0
Ave special neighs/atom = 2.2229299
Neighbor list builds = 0
Dangerous builds = 0
next n_loop
jump SELF runloop
change_box all xy delta ${delta_gamma_distance} remap
change_box all xy delta 0.2554 remap
Changing box ...
  triclinic box = (-12.77 -12.77 -12.77) to (12.77 12.77 12.77) with tilt (9.9606 0 0)
if "${xy} == ${flip_strain}" then "change_box all xy final -${flip_strain}"
run ${shear_every}
run 1000
WARNING: Using a manybody potential with bonds/angles/dihedrals and special_bond exclusions (../pair.cpp:242)
Per MPI rank memory allocation (min/avg/max) = 13.7 | 13.71 | 13.71 Mbytes
   Step          Temp            Xy        c_presion[4] 
     38000   0.0058646718   9.9606        -0.03370805   
     38999   0.0061677665   9.9606        -0.013352744  
     39000   0.0060152909   9.9606        -0.013300404  
Loop time of 0.28118 on 4 procs for 1000 steps with 6280 atoms

Performance: 307276.830 tau/day, 3556.445 timesteps/s, 22.334 Matom-step/s
100.0% CPU use with 4 MPI tasks x no OpenMP threads

MPI task timing breakdown:
Section |  min time  |  avg time  |  max time  |%varavg| %total
---------------------------------------------------------------
Pair    | 0.088513   | 0.097498   | 0.10921    |   2.4 | 34.67
Bond    | 0.053226   | 0.056215   | 0.060096   |   1.1 | 19.99
[...]
run ${shear_every}
run 1000
Per MPI rank memory allocation (min/avg/max) = 13.74 | 13.75 | 13.76 Mbytes
   Step          Temp            Xy        c_presion[4] 
    189000   0.0062568549  -2.554         -0.062099745  
    189999   0.005947669   -2.554         -0.040258097  
    190000   0.0061380645  -2.554         -0.040227314  
Loop time of 0.276224 on 4 procs for 1000 steps with 6280 atoms

Performance: 312789.932 tau/day, 3620.254 timesteps/s, 22.735 Matom-step/s
99.9% CPU use with 4 MPI tasks x no OpenMP threads

MPI task timing breakdown:
Section |  min time  |  avg time  |  max time  |%varavg| %total
---------------------------------------------------------------
Pair    | 0.094802   | 0.099344   | 0.105      |   1.2 | 35.97
Bond    | 0.050189   | 0.055454   | 0.057741   |   1.3 | 20.08
Neigh   | 0.0018808  | 0.0018825  | 0.0018837  |   0.0 |  0.68
Comm    | 0.022442   | 0.029865   | 0.039539   |   3.6 | 10.81
Output  | 0.0013965  | 0.0015106  | 0.0016102  |   0.2 |  0.55
Modify  | 0.078322   | 0.080719   | 0.081806   |   0.5 | 29.22
Other   |            | 0.007449   |            |       |  2.70

Nlocal:           1570 ave        1616 max        1489 min
Histogram: 1 0 0 0 0 0 0 1 1 1
Nghost:        1023.25 ave        1090 max         920 min
Histogram: 1 0 0 0 0 1 0 0 0 2
Neighs:              0 ave           0 max           0 min
Histogram: 4 0 0 0 0 0 0 0 0 0

Total # of neighbors = 0
Ave neighs/atom = 0
Ave special neighs/atom = 2.2229299
Neighbor list builds = 1
Dangerous builds = 0
next n_loop
jump SELF runloop
change_box all xy delta ${delta_gamma_distance} remap
change_box all xy delta 0.2554 remap
Changing box ...
  triclinic box = (-12.77 -12.77 -12.77) to (12.77 12.77 12.77) with tilt (-2.2986 0 0)
if "${xy} == ${flip_strain}" then "change_box all xy final -${flip_strain}"
run ${shear_every}
run 1000
Per MPI rank memory allocation (min/avg/max) = 13.74 | 13.75 | 13.76 Mbytes
   Step          Temp            Xy        c_presion[4] 
    190000   0.0061380645  -2.2986        -0.062494246  
    190999   0.0063296926  -2.2986        -0.039815334  
    191000   0.0063461724  -2.2986        -0.039414255  
Loop time of 0.281327 on 4 procs for 1000 steps with 6280 atoms

Performance: 307116.056 tau/day, 3554.584 timesteps/s, 22.323 Matom-step/s
99.6% CPU use with 4 MPI tasks x no OpenMP threads

MPI task timing breakdown:
Section |  min time  |  avg time  |  max time  |%varavg| %total
---------------------------------------------------------------
Pair    | 0.095719   | 0.099945   | 0.10428    |   1.0 | 35.53
Bond    | 0.051171   | 0.055672   | 0.057381   |   1.1 | 19.79
Neigh   | 0.0018436  | 0.0018454  | 0.0018469  |   0.0 |  0.66
Comm    | 0.025775   | 0.03099    | 0.039883   |   3.1 | 11.02
Output  | 0.0014044  | 0.0015176  | 0.0016181  |   0.2 |  0.54
Modify  | 0.080481   | 0.081702   | 0.083082   |   0.3 | 29.04
Other   |            | 0.009656   |            |       |  3.43

Nlocal:           1570 ave        1612 max        1488 min
Histogram: 1 0 0 0 0 0 0 1 1 1
Nghost:        1023.75 ave        1086 max         918 min
Histogram: 1 0 0 0 0 0 1 0 0 2
Neighs:              0 ave           0 max           0 min
Histogram: 4 0 0 0 0 0 0 0 0 0

Total # of neighbors = 0
Ave neighs/atom = 0
Ave special neighs/atom = 2.2229299
Neighbor list builds = 1
Dangerous builds = 0
next n_loop
jump SELF runloop
change_box all xy delta ${delta_gamma_distance} remap
change_box all xy delta 0.2554 remap
Changing box ...
  triclinic box = (-12.77 -12.77 -12.77) to (12.77 12.77 12.77) with tilt (-2.0432 0 0)
if "${xy} == ${flip_strain}" then "change_box all xy final -${flip_strain}"
run ${shear_every}
run 1000
Per MPI rank memory allocation (min/avg/max) = 13.74 | 13.75 | 13.76 Mbytes
   Step          Temp            Xy        c_presion[4] 
    191000   0.0063461724  -2.0432        -0.061493499  
    191999   0.0059738949  -2.0432        -0.04126434   
    192000   0.0059237364  -2.0432        -0.04133279   
Loop time of 0.275422 on 4 procs for 1000 steps with 6280 atoms

Performance: 313700.898 tau/day, 3630.797 timesteps/s, 22.801 Matom-step/s
100.0% CPU use with 4 MPI tasks x no OpenMP threads

MPI task timing breakdown:
Section |  min time  |  avg time  |  max time  |%varavg| %total
---------------------------------------------------------------
Pair    | 0.095089   | 0.099468   | 0.10426    |   1.1 | 36.11
Bond    | 0.051686   | 0.055636   | 0.057513   |   1.0 | 20.20
Neigh   | 0.0037081  | 0.003711   | 0.0037133  |   0.0 |  1.35
Comm    | 0.022352   | 0.027977   | 0.036239   |   3.0 | 10.16
Output  | 0.0013994  | 0.0015041  | 0.0015985  |   0.2 |  0.55
Modify  | 0.07762    | 0.079909   | 0.080994   |   0.5 | 29.01
Other   |            | 0.007218   |            |       |  2.62

Nlocal:           1570 ave        1612 max        1487 min
Histogram: 1 0 0 0 0 0 0 1 1 1
Nghost:           1022 ave        1084 max         922 min
Histogram: 1 0 0 0 0 1 0 0 1 1
Neighs:              0 ave           0 max           0 min
Histogram: 4 0 0 0 0 0 0 0 0 0

Total # of neighbors = 0
Ave neighs/atom = 0
Ave special neighs/atom = 2.2229299
Neighbor list builds = 2
Dangerous builds = 0
next n_loop
jump SELF runloop
change_box all xy delta ${delta_gamma_distance} remap
change_box all xy delta 0.2554 remap
Changing box ...
  triclinic box = (-12.77 -12.77 -12.77) to (12.77 12.77 12.77) with tilt (-1.7878 0 0)
if "${xy} == ${flip_strain}" then "change_box all xy final -${flip_strain}"
run ${shear_every}
run 1000
Per MPI rank memory allocation (min/avg/max) = 13.74 | 13.75 | 13.76 Mbytes
   Step          Temp            Xy        c_presion[4] 
    192000   0.0059237364  -1.7878        -0.063892121  
    192999   0.0059757418  -1.7878        -0.042779132  
    193000   0.0058134023  -1.7878        -0.043021125  
Loop time of 0.280184 on 4 procs for 1000 steps with 6280 atoms

Performance: 308368.531 tau/day, 3569.080 timesteps/s, 22.414 Matom-step/s
99.7% CPU use with 4 MPI tasks x no OpenMP threads

MPI task timing breakdown:
Section |  min time  |  avg time  |  max time  |%varavg| %total
---------------------------------------------------------------
Pair    | 0.095945   | 0.099765   | 0.10427    |   1.0 | 35.61
Bond    | 0.05107    | 0.055502   | 0.057567   |   1.1 | 19.81
Neigh   | 0.0040887  | 0.0040921  | 0.0040956  |   0.0 |  1.46
Comm    | 0.02488    | 0.030597   | 0.038992   |   3.0 | 10.92
Output  | 0.001413   | 0.001516   | 0.0016087  |   0.2 |  0.54
Modify  | 0.078866   | 0.080853   | 0.081761   |   0.4 | 28.86
Other   |            | 0.007859   |            |       |  2.80

Nlocal:           1570 ave        1613 max        1482 min
Histogram: 1 0 0 0 0 0 0 1 1 1
Nghost:        1020.25 ave        1081 max         920 min
Histogram: 1 0 0 0 0 1 0 0 0 2
Neighs:              0 ave           0 max           0 min
Histogram: 4 0 0 0 0 0 0 0 0 0

Total # of neighbors = 0
Ave neighs/atom = 0
Ave special neighs/atom = 2.2229299
Neighbor list builds = 2
Dangerous builds = 0
next n_loop
jump SELF runloop
change_box all xy delta ${delta_gamma_distance} remap
change_box all xy delta 0.2554 remap
Changing box ...
  triclinic box = (-12.77 -12.77 -12.77) to (12.77 12.77 12.77) with tilt (-1.5324 0 0)
if "${xy} == ${flip_strain}" then "change_box all xy final -${flip_strain}"
run ${shear_every}
run 1000
Per MPI rank memory allocation (min/avg/max) = 13.74 | 13.75 | 13.76 Mbytes
   Step          Temp            Xy        c_presion[4] 
    193000   0.0058134023  -1.5324        -0.065332425  
    193999   0.0063135852  -1.5324        -0.04266767   
    194000   0.0062449104  -1.5324        -0.042695683  
Loop time of 0.276532 on 4 procs for 1000 steps with 6280 atoms

Performance: 312441.608 tau/day, 3616.222 timesteps/s, 22.710 Matom-step/s
99.9% CPU use with 4 MPI tasks x no OpenMP threads

MPI task timing breakdown:
Section |  min time  |  avg time  |  max time  |%varavg| %total
---------------------------------------------------------------
Pair    | 0.095224   | 0.09962    | 0.10471    |   1.1 | 36.02
Bond    | 0.050927   | 0.055465   | 0.05738    |   1.1 | 20.06
Neigh   | 0.0018603  | 0.0018618  | 0.0018634  |   0.0 |  0.67
Comm    | 0.023459   | 0.029482   | 0.038349   |   3.2 | 10.66
Output  | 0.0013938  | 0.0015015  | 0.0015976  |   0.2 |  0.54
Modify  | 0.078078   | 0.080195   | 0.081255   |   0.4 | 29.00
Other   |            | 0.008407   |            |       |  3.04

Nlocal:           1570 ave        1617 max        1482 min
Histogram: 1 0 0 0 0 0 0 1 1 1
Nghost:         1020.5 ave        1086 max         914 min
Histogram: 1 0 0 0 0 1 0 0 0 2
Neighs:              0 ave           0 max           0 min
Histogram: 4 0 0 0 0 0 0 0 0 0

Total # of neighbors = 0
Ave neighs/atom = 0
Ave special neighs/atom = 2.2229299
Neighbor list builds = 1
Dangerous builds = 0
next n_loop
jump SELF runloop
change_box all xy delta ${delta_gamma_distance} remap
change_box all xy delta 0.2554 remap
Changing box ...
  triclinic box = (-12.77 -12.77 -12.77) to (12.77 12.77 12.77) with tilt (-1.277 0 0)
if "${xy} == ${flip_strain}" then "change_box all xy final -${flip_strain}"
run ${shear_every}
run 1000
Per MPI rank memory allocation (min/avg/max) = 13.74 | 13.75 | 13.76 Mbytes
   Step          Temp            Xy        c_presion[4] 
    194000   0.0062449104  -1.277         -0.064679063  
    194999   0.0059739499  -1.277         -0.042552817  
    195000   0.0061131581  -1.277         -0.042820629  
Loop time of 0.272821 on 4 procs for 1000 steps with 6280 atoms

Performance: 316691.451 tau/day, 3665.410 timesteps/s, 23.019 Matom-step/s
100.0% CPU use with 4 MPI tasks x no OpenMP threads

MPI task timing breakdown:
Section |  min time  |  avg time  |  max time  |%varavg| %total
---------------------------------------------------------------
Pair    | 0.094494   | 0.099053   | 0.10417    |   1.1 | 36.31
Bond    | 0.051029   | 0.055321   | 0.057018   |   1.1 | 20.28
Neigh   | 0.0018554  | 0.0018573  | 0.0018593  |   0.0 |  0.68
Comm    | 0.021701   | 0.027818   | 0.036595   |   3.3 | 10.20
Output  | 0.0014043  | 0.0015362  | 0.001662   |   0.3 |  0.56
Modify  | 0.077722   | 0.080008   | 0.081032   |   0.5 | 29.33
Other   |            | 0.007227   |            |       |  2.65

Nlocal:           1570 ave        1617 max        1482 min
Histogram: 1 0 0 0 0 0 0 1 1 1
Nghost:           1019 ave        1084 max         912 min
Histogram: 1 0 0 0 0 1 0 0 0 2
Neighs:              0 ave           0 max           0 min
Histogram: 4 0 0 0 0 0 0 0 0 0

Total # of neighbors = 0
Ave neighs/atom = 0
Ave special neighs/atom = 2.2229299
Neighbor list builds = 1
Dangerous builds = 0
next n_loop
jump SELF runloop
change_box all xy delta ${delta_gamma_distance} remap
change_box all xy delta 0.2554 remap
Changing box ...
  triclinic box = (-12.77 -12.77 -12.77) to (12.77 12.77 12.77) with tilt (-1.0216 0 0)
if "${xy} == ${flip_strain}" then "change_box all xy final -${flip_strain}"
run ${shear_every}
run 1000
Per MPI rank memory allocation (min/avg/max) = 13.74 | 13.75 | 13.76 Mbytes
   Step          Temp            Xy        c_presion[4] 
    195000   0.0061131581  -1.0216        -0.064525807  
    195999   0.0059502922  -1.0216        -0.045202152  
    196000   0.0059961698  -1.0216        -0.045114679  
Loop time of 0.276104 on 4 procs for 1000 steps with 6280 atoms

Performance: 312925.336 tau/day, 3621.821 timesteps/s, 22.745 Matom-step/s
100.0% CPU use with 4 MPI tasks x no OpenMP threads

MPI task timing breakdown:
Section |  min time  |  avg time  |  max time  |%varavg| %total
---------------------------------------------------------------
Pair    | 0.095038   | 0.099656   | 0.10445    |   1.1 | 36.09
Bond    | 0.05445    | 0.056467   | 0.057193   |   0.5 | 20.45
Neigh   | 0.0018713  | 0.0018737  | 0.0018757  |   0.0 |  0.68
Comm    | 0.023527   | 0.02862    | 0.035276   |   2.5 | 10.37
Output  | 0.0013927  | 0.0015061  | 0.0016008  |   0.2 |  0.55
Modify  | 0.077966   | 0.080294   | 0.081205   |   0.5 | 29.08
Other   |            | 0.007687   |            |       |  2.78

Nlocal:           1570 ave        1617 max        1477 min
Histogram: 1 0 0 0 0 0 0 1 1 1
Nghost:        1020.25 ave        1092 max         912 min
Histogram: 1 0 0 0 0 1 0 0 1 1
Neighs:              0 ave           0 max           0 min
Histogram: 4 0 0 0 0 0 0 0 0 0

Total # of neighbors = 0
Ave neighs/atom = 0
Ave special neighs/atom = 2.2229299
Neighbor list builds = 1
Dangerous builds = 0
next n_loop
jump SELF runloop
change_box all xy delta ${delta_gamma_distance} remap
change_box all xy delta 0.2554 remap
Changing box ...
  triclinic box = (-12.77 -12.77 -12.77) to (12.77 12.77 12.77) with tilt (-0.7662 0 0)
if "${xy} == ${flip_strain}" then "change_box all xy final -${flip_strain}"
run ${shear_every}
run 1000
Per MPI rank memory allocation (min/avg/max) = 13.74 | 13.75 | 13.76 Mbytes
   Step          Temp            Xy        c_presion[4] 
    196000   0.0059961698  -0.7662        -0.067095111  
    196999   0.0062390964  -0.7662        -0.047010608  
    197000   0.0062417136  -0.7662        -0.04663469   
Loop time of 0.274433 on 4 procs for 1000 steps with 6280 atoms

Performance: 314831.323 tau/day, 3643.881 timesteps/s, 22.884 Matom-step/s
99.9% CPU use with 4 MPI tasks x no OpenMP threads

MPI task timing breakdown:
Section |  min time  |  avg time  |  max time  |%varavg| %total
---------------------------------------------------------------
Pair    | 0.095598   | 0.099362   | 0.10429    |   1.0 | 36.21
Bond    | 0.053568   | 0.056036   | 0.057033   |   0.6 | 20.42
Neigh   | 0.0018479  | 0.0018499  | 0.0018517  |   0.0 |  0.67
Comm    | 0.022941   | 0.028277   | 0.034447   |   2.4 | 10.30
Output  | 0.0014147  | 0.0015247  | 0.0016276  |   0.2 |  0.56
Modify  | 0.077871   | 0.080074   | 0.081001   |   0.5 | 29.18
Other   |            | 0.00731    |            |       |  2.66

Nlocal:           1570 ave        1621 max        1473 min
Histogram: 1 0 0 0 0 0 0 1 1 1
Nghost:        1021.75 ave        1093 max         915 min
Histogram: 1 0 0 0 0 1 0 0 1 1
Neighs:              0 ave           0 max           0 min
Histogram: 4 0 0 0 0 0 0 0 0 0

Total # of neighbors = 0
Ave neighs/atom = 0
Ave special neighs/atom = 2.2229299
Neighbor list builds = 1
Dangerous builds = 0
next n_loop
jump SELF runloop
change_box all xy delta ${delta_gamma_distance} remap
change_box all xy delta 0.2554 remap
Changing box ...
  triclinic box = (-12.77 -12.77 -12.77) to (12.77 12.77 12.77) with tilt (-0.5108 0 0)
if "${xy} == ${flip_strain}" then "change_box all xy final -${flip_strain}"
run ${shear_every}
run 1000
Per MPI rank memory allocation (min/avg/max) = 13.74 | 13.75 | 13.76 Mbytes
   Step          Temp            Xy        c_presion[4] 
    197000   0.0062417136  -0.5108        -0.068491923  
    197999   0.0061331631  -0.5108        -0.04866357   
    198000   0.0061674937  -0.5108        -0.047047563  
Loop time of 0.27738 on 4 procs for 1000 steps with 6280 atoms

Performance: 311485.524 tau/day, 3605.157 timesteps/s, 22.640 Matom-step/s
99.9% CPU use with 4 MPI tasks x no OpenMP threads

MPI task timing breakdown:
Section |  min time  |  avg time  |  max time  |%varavg| %total
---------------------------------------------------------------
Pair    | 0.0959     | 0.099565   | 0.10522    |   1.1 | 35.89
Bond    | 0.052992   | 0.055973   | 0.057521   |   0.8 | 20.18
Neigh   | 0.001858   | 0.0018594  | 0.0018608  |   0.0 |  0.67
Comm    | 0.024052   | 0.03074    | 0.037321   |   2.7 | 11.08
Output  | 0.0014264  | 0.0015518  | 0.0016554  |   0.2 |  0.56
Modify  | 0.077734   | 0.08027    | 0.081332   |   0.5 | 28.94
Other   |            | 0.007421   |            |       |  2.68

Nlocal:           1570 ave        1618 max        1479 min
Histogram: 1 0 0 0 0 0 0 1 1 1
Nghost:        1023.75 ave        1096 max         906 min
Histogram: 1 0 0 0 0 1 0 0 0 2
Neighs:              0 ave           0 max           0 min
Histogram: 4 0 0 0 0 0 0 0 0 0

Total # of neighbors = 0
Ave neighs/atom = 0
Ave special neighs/atom = 2.2229299
Neighbor list builds = 1
Dangerous builds = 0
next n_loop
jump SELF runloop
change_box all xy delta ${delta_gamma_distance} remap
change_box all xy delta 0.2554 remap
Changing box ...
  triclinic box = (-12.77 -12.77 -12.77) to (12.77 12.77 12.77) with tilt (-0.2554 0 0)
if "${xy} == ${flip_strain}" then "change_box all xy final -${flip_strain}"
run ${shear_every}
run 1000
Per MPI rank memory allocation (min/avg/max) = 13.74 | 13.75 | 13.76 Mbytes
   Step          Temp            Xy        c_presion[4] 
    198000   0.0061674937  -0.2554        -0.069304035  
    198999   0.0060741088  -0.2554        -0.048363438  
    199000   0.0060144419  -0.2554        -0.048634162  
Loop time of 0.270903 on 4 procs for 1000 steps with 6280 atoms

Performance: 318932.838 tau/day, 3691.352 timesteps/s, 23.182 Matom-step/s
100.0% CPU use with 4 MPI tasks x no OpenMP threads

MPI task timing breakdown:
Section |  min time  |  avg time  |  max time  |%varavg| %total
---------------------------------------------------------------
Pair    | 0.094296   | 0.098796   | 0.10352    |   1.0 | 36.47
Bond    | 0.050615   | 0.055277   | 0.057275   |   1.2 | 20.40
Neigh   | 0          | 0          | 0          |   0.0 |  0.00
Comm    | 0.022388   | 0.028302   | 0.037478   |   3.3 | 10.45
Output  | 0.0014311  | 0.0015519  | 0.0016607  |   0.2 |  0.57
Modify  | 0.077274   | 0.079834   | 0.080814   |   0.5 | 29.47
Other   |            | 0.007143   |            |       |  2.64

Nlocal:           1570 ave        1619 max        1477 min
Histogram: 1 0 0 0 0 0 0 1 1 1
Nghost:         1023.5 ave        1098 max         909 min
Histogram: 1 0 0 0 0 1 0 0 1 1
Neighs:              0 ave           0 max           0 min
Histogram: 4 0 0 0 0 0 0 0 0 0

Total # of neighbors = 0
Ave neighs/atom = 0
Ave special neighs/atom = 2.2229299
Neighbor list builds = 0
Dangerous builds = 0
next n_loop
jump SELF runloop
change_box all xy delta ${delta_gamma_distance} remap
change_box all xy delta 0.2554 remap
Changing box ...
  triclinic box = (-12.77 -12.77 -12.77) to (12.77 12.77 12.77) with tilt (-5.4400928e-15 0 0)
if "${xy} == ${flip_strain}" then "change_box all xy final -${flip_strain}"
run ${shear_every}
run 1000
Per MPI rank memory allocation (min/avg/max) = 13.74 | 13.75 | 13.76 Mbytes
   Step          Temp            Xy        c_presion[4] 
    199000   0.0060144419  -5.4400928e-15 -0.070406123  
    199999   0.0058007571  -5.4400928e-15 -0.048665035  
    200000   0.005778066   -5.4400928e-15 -0.048523051  
Loop time of 0.27442 on 4 procs for 1000 steps with 6280 atoms

Performance: 314845.452 tau/day, 3644.045 timesteps/s, 22.885 Matom-step/s
99.5% CPU use with 4 MPI tasks x no OpenMP threads

MPI task timing breakdown:
Section |  min time  |  avg time  |  max time  |%varavg| %total
---------------------------------------------------------------
Pair    | 0.095593   | 0.099194   | 0.10482    |   1.1 | 36.15
Bond    | 0.05166    | 0.055488   | 0.057222   |   1.0 | 20.22
Neigh   | 0          | 0          | 0          |   0.0 |  0.00
Comm    | 0.022937   | 0.029624   | 0.037043   |   2.9 | 10.80
Output  | 0.001415   | 0.0015355  | 0.0016436  |   0.2 |  0.56
Modify  | 0.078349   | 0.080247   | 0.081331   |   0.4 | 29.24
Other   |            | 0.008332   |            |       |  3.04

Nlocal:           1570 ave        1618 max        1479 min
Histogram: 1 0 0 0 0 0 0 1 1 1
Nghost:        1022.75 ave        1104 max         901 min
Histogram: 1 0 0 0 0 1 0 0 1 1
Neighs:              0 ave           0 max           0 min
Histogram: 4 0 0 0 0 0 0 0 0 0

Total # of neighbors = 0
Ave neighs/atom = 0
Ave special neighs/atom = 2.2229299
Neighbor list builds = 0
Dangerous builds = 0
next n_loop
jump SELF runloop

write_data /media/felipe/Files/Hydrogel_sim_results/SizeExperiments/2k_particles/exp5/system_v3_shearing_2k_5.data #CAMBIAR
System init for write_data ...
Total wall time: 0:00:57
